n -t * -s 0  -x 5 -y 5 -Z 0 -z 30  -v circle -c black
n -t * -s 1  -x 490 -y 285 -Z 0 -z 30  -v circle -c black
n -t * -s 2  -x 150 -y 240 -Z 0 -z 30  -v circle -c black
V -t * -v 1.0a5 -a 0
W -t * -x 500 -y 400
A -t * -n 1 -p 0 -o 0xffffffff -c 31 -a 1
A -t * -h 1 -m 2147483647 -s 0
n -t 10.000000 -s 0 -x 5.000000 -y 5.000000 -U 2.121320 -V 2.121320 -T 115.494108
+ -t 10.000535000 -s 0 -d -1 -p AODV -e 100 -c 2 -a 0 -i 0 -k MAC 
- -t 10.000535000 -s 0 -d -1 -p AODV -e 100 -c 2 -a 0 -i 0 -k MAC
h -t 10.000535000 -s 0 -d -1 -p AODV -e 100 -c 2 -a 0 -i 0 -k MAC
+ -t 12.000635000 -s 0 -d -1 -p AODV -e 100 -c 2 -a 0 -i 0 -k MAC 
- -t 12.000635000 -s 0 -d -1 -p AODV -e 100 -c 2 -a 0 -i 0 -k MAC
h -t 12.000635000 -s 0 -d -1 -p AODV -e 100 -c 2 -a 0 -i 0 -k MAC
n -t 15.000000 -s 1 -x 490.000000 -y 285.000000 -U -5.000000 -V 0.000000 -T 89.000000
+ -t 16.000395000 -s 0 -d -1 -p AODV -e 100 -c 2 -a 0 -i 0 -k MAC 
- -t 16.000395000 -s 0 -d -1 -p AODV -e 100 -c 2 -a 0 -i 0 -k MAC
h -t 16.000395000 -s 0 -d -1 -p AODV -e 100 -c 2 -a 0 -i 0 -k MAC
+ -t 21.500235000 -s 0 -d -1 -p AODV -e 100 -c 2 -a 0 -i 0 -k MAC 
- -t 21.500235000 -s 0 -d -1 -p AODV -e 100 -c 2 -a 0 -i 0 -k MAC
h -t 21.500235000 -s 0 -d -1 -p AODV -e 100 -c 2 -a 0 -i 0 -k MAC
r -t 21.501035809 -s 2 -d -1 -p AODV -e 48 -c 2 -a 0 -i 0 -k MAC
+ -t 21.503841826 -s 2 -d -1 -p AODV -e 100 -c 2 -a 0 -i 0 -k MAC 
- -t 21.503841826 -s 2 -d -1 -p AODV -e 100 -c 2 -a 0 -i 0 -k MAC
h -t 21.503841826 -s 2 -d -1 -p AODV -e 100 -c 2 -a 0 -i 0 -k MAC
r -t 21.504642635 -s 0 -d -1 -p AODV -e 48 -c 2 -a 0 -i 0 -k MAC
+ -t 39.000315000 -s 0 -d -1 -p AODV -e 100 -c 2 -a 0 -i 0 -k MAC 
- -t 39.000315000 -s 0 -d -1 -p AODV -e 100 -c 2 -a 0 -i 0 -k MAC
h -t 39.000315000 -s 0 -d -1 -p AODV -e 100 -c 2 -a 0 -i 0 -k MAC
r -t 39.001115642 -s 2 -d -1 -p AODV -e 48 -c 2 -a 0 -i 0 -k MAC
+ -t 39.001803587 -s 2 -d -1 -p AODV -e 100 -c 2 -a 0 -i 0 -k MAC 
- -t 39.001803587 -s 2 -d -1 -p AODV -e 100 -c 2 -a 0 -i 0 -k MAC
h -t 39.001803587 -s 2 -d -1 -p AODV -e 100 -c 2 -a 0 -i 0 -k MAC
r -t 39.002604229 -s 0 -d -1 -p AODV -e 48 -c 2 -a 0 -i 0 -k MAC
r -t 39.002604336 -s 1 -d -1 -p AODV -e 48 -c 2 -a 0 -i 0 -k MAC
+ -t 39.002924336 -s 1 -d -1 -p ARP -e 80 -c 2 -a 0 -i 0 -k MAC 
- -t 39.002924336 -s 1 -d -1 -p ARP -e 80 -c 2 -a 0 -i 0 -k MAC
h -t 39.002924336 -s 1 -d -1 -p ARP -e 80 -c 2 -a 0 -i 0 -k MAC
r -t 39.003565084 -s 2 -d -1 -p ARP -e 28 -c 2 -a 0 -i 0 -k MAC
+ -t 39.003715084 -s 2 -d -1 -p RTS -e 44 -c 2 -a 0 -i 0 -k MAC 
- -t 39.003715084 -s 2 -d -1 -p RTS -e 44 -c 2 -a 0 -i 0 -k MAC
h -t 39.003715084 -s 2 -d -1 -p RTS -e 44 -c 2 -a 0 -i 0 -k MAC
r -t 39.004067833 -s 1 -d -1 -p RTS -e 44 -c 2 -a 0 -i 0 -k MAC
+ -t 39.004077833 -s 1 -d -1 -p CTS -e 38 -c 2 -a 0 -i 0 -k MAC 
- -t 39.004077833 -s 1 -d -1 -p CTS -e 38 -c 2 -a 0 -i 0 -k MAC
h -t 39.004077833 -s 1 -d -1 -p CTS -e 38 -c 2 -a 0 -i 0 -k MAC
r -t 39.004382581 -s 2 -d -1 -p CTS -e 38 -c 2 -a 0 -i 0 -k MAC
+ -t 39.004392581 -s 2 -d -1 -p ARP -e 80 -c 2 -a 0 -i 0 -k MAC 
- -t 39.004392581 -s 2 -d -1 -p ARP -e 80 -c 2 -a 0 -i 0 -k MAC
h -t 39.004392581 -s 2 -d -1 -p ARP -e 80 -c 2 -a 0 -i 0 -k MAC
r -t 39.005033330 -s 1 -d -1 -p ARP -e 28 -c 2 -a 0 -i 0 -k MAC
+ -t 39.005043330 -s 1 -d -1 -p ACK -e 38 -c 2 -a 0 -i 0 -k MAC 
- -t 39.005043330 -s 1 -d -1 -p ACK -e 38 -c 2 -a 0 -i 0 -k MAC
h -t 39.005043330 -s 1 -d -1 -p ACK -e 38 -c 2 -a 0 -i 0 -k MAC
r -t 39.005348078 -s 2 -d -1 -p ACK -e 38 -c 2 -a 0 -i 0 -k MAC
+ -t 39.005457330 -s 1 -d -1 -p RTS -e 44 -c 2 -a 0 -i 0 -k MAC 
- -t 39.005457330 -s 1 -d -1 -p RTS -e 44 -c 2 -a 0 -i 0 -k MAC
h -t 39.005457330 -s 1 -d -1 -p RTS -e 44 -c 2 -a 0 -i 0 -k MAC
r -t 39.005810078 -s 2 -d -1 -p RTS -e 44 -c 2 -a 0 -i 0 -k MAC
+ -t 39.005820078 -s 2 -d -1 -p CTS -e 38 -c 2 -a 0 -i 0 -k MAC 
- -t 39.005820078 -s 2 -d -1 -p CTS -e 38 -c 2 -a 0 -i 0 -k MAC
h -t 39.005820078 -s 2 -d -1 -p CTS -e 38 -c 2 -a 0 -i 0 -k MAC
r -t 39.006124826 -s 1 -d -1 -p CTS -e 38 -c 2 -a 0 -i 0 -k MAC
+ -t 39.006134826 -s 1 -d 2 -p AODV -e 96 -c 2 -a 0 -i 0 -k MAC 
- -t 39.006134826 -s 1 -d 2 -p AODV -e 96 -c 2 -a 0 -i 0 -k MAC
h -t 39.006134826 -s 1 -d 2 -p AODV -e 96 -c 2 -a 0 -i 0 -k MAC
r -t 39.006903575 -s 2 -d 2 -p AODV -e 44 -c 2 -a 0 -i 0 -k MAC
+ -t 39.006913575 -s 2 -d -1 -p ACK -e 38 -c 2 -a 0 -i 0 -k MAC 
- -t 39.006913575 -s 2 -d -1 -p ACK -e 38 -c 2 -a 0 -i 0 -k MAC
h -t 39.006913575 -s 2 -d -1 -p ACK -e 38 -c 2 -a 0 -i 0 -k MAC
r -t 39.007218323 -s 1 -d -1 -p ACK -e 38 -c 2 -a 0 -i 0 -k MAC
+ -t 39.007707575 -s 2 -d -1 -p ARP -e 80 -c 2 -a 0 -i 0 -k MAC 
- -t 39.007707575 -s 2 -d -1 -p ARP -e 80 -c 2 -a 0 -i 0 -k MAC
h -t 39.007707575 -s 2 -d -1 -p ARP -e 80 -c 2 -a 0 -i 0 -k MAC
r -t 39.008348217 -s 0 -d -1 -p ARP -e 28 -c 2 -a 0 -i 0 -k MAC
r -t 39.008348323 -s 1 -d -1 -p ARP -e 28 -c 2 -a 0 -i 0 -k MAC
+ -t 39.008603217 -s 0 -d -1 -p RTS -e 44 -c 2 -a 0 -i 0 -k MAC 
- -t 39.008603217 -s 0 -d -1 -p RTS -e 44 -c 2 -a 0 -i 0 -k MAC
h -t 39.008603217 -s 0 -d -1 -p RTS -e 44 -c 2 -a 0 -i 0 -k MAC
r -t 39.008955858 -s 2 -d -1 -p RTS -e 44 -c 2 -a 0 -i 0 -k MAC
+ -t 39.008965858 -s 2 -d -1 -p CTS -e 38 -c 2 -a 0 -i 0 -k MAC 
- -t 39.008965858 -s 2 -d -1 -p CTS -e 38 -c 2 -a 0 -i 0 -k MAC
h -t 39.008965858 -s 2 -d -1 -p CTS -e 38 -c 2 -a 0 -i 0 -k MAC
r -t 39.009270500 -s 0 -d -1 -p CTS -e 38 -c 2 -a 0 -i 0 -k MAC
+ -t 39.009280500 -s 0 -d -1 -p ARP -e 80 -c 2 -a 0 -i 0 -k MAC 
- -t 39.009280500 -s 0 -d -1 -p ARP -e 80 -c 2 -a 0 -i 0 -k MAC
h -t 39.009280500 -s 0 -d -1 -p ARP -e 80 -c 2 -a 0 -i 0 -k MAC
r -t 39.009921142 -s 2 -d -1 -p ARP -e 28 -c 2 -a 0 -i 0 -k MAC
+ -t 39.009931142 -s 2 -d -1 -p ACK -e 38 -c 2 -a 0 -i 0 -k MAC 
- -t 39.009931142 -s 2 -d -1 -p ACK -e 38 -c 2 -a 0 -i 0 -k MAC
h -t 39.009931142 -s 2 -d -1 -p ACK -e 38 -c 2 -a 0 -i 0 -k MAC
r -t 39.010235783 -s 0 -d -1 -p ACK -e 38 -c 2 -a 0 -i 0 -k MAC
+ -t 39.010405142 -s 2 -d -1 -p RTS -e 44 -c 2 -a 0 -i 0 -k MAC 
- -t 39.010405142 -s 2 -d -1 -p RTS -e 44 -c 2 -a 0 -i 0 -k MAC
h -t 39.010405142 -s 2 -d -1 -p RTS -e 44 -c 2 -a 0 -i 0 -k MAC
r -t 39.010757783 -s 0 -d -1 -p RTS -e 44 -c 2 -a 0 -i 0 -k MAC
+ -t 39.010767783 -s 0 -d -1 -p CTS -e 38 -c 2 -a 0 -i 0 -k MAC 
- -t 39.010767783 -s 0 -d -1 -p CTS -e 38 -c 2 -a 0 -i 0 -k MAC
h -t 39.010767783 -s 0 -d -1 -p CTS -e 38 -c 2 -a 0 -i 0 -k MAC
r -t 39.011072425 -s 2 -d -1 -p CTS -e 38 -c 2 -a 0 -i 0 -k MAC
+ -t 39.011082425 -s 2 -d 0 -p AODV -e 96 -c 2 -a 0 -i 0 -k MAC 
- -t 39.011082425 -s 2 -d 0 -p AODV -e 96 -c 2 -a 0 -i 0 -k MAC
h -t 39.011082425 -s 2 -d 0 -p AODV -e 96 -c 2 -a 0 -i 0 -k MAC
r -t 39.011851066 -s 0 -d 0 -p AODV -e 44 -c 2 -a 0 -i 0 -k MAC
+ -t 39.011861066 -s 0 -d -1 -p ACK -e 38 -c 2 -a 0 -i 0 -k MAC 
- -t 39.011861066 -s 0 -d -1 -p ACK -e 38 -c 2 -a 0 -i 0 -k MAC
h -t 39.011861066 -s 0 -d -1 -p ACK -e 38 -c 2 -a 0 -i 0 -k MAC
r -t 39.012165708 -s 2 -d -1 -p ACK -e 38 -c 2 -a 0 -i 0 -k MAC
+ -t 39.012335066 -s 0 -d -1 -p RTS -e 44 -c 2 -a 0 -i 0 -k MAC 
- -t 39.012335066 -s 0 -d -1 -p RTS -e 44 -c 2 -a 0 -i 0 -k MAC
h -t 39.012335066 -s 0 -d -1 -p RTS -e 44 -c 2 -a 0 -i 0 -k MAC
r -t 39.012687708 -s 2 -d -1 -p RTS -e 44 -c 2 -a 0 -i 0 -k MAC
+ -t 39.012697708 -s 2 -d -1 -p CTS -e 38 -c 2 -a 0 -i 0 -k MAC 
- -t 39.012697708 -s 2 -d -1 -p CTS -e 38 -c 2 -a 0 -i 0 -k MAC
h -t 39.012697708 -s 2 -d -1 -p CTS -e 38 -c 2 -a 0 -i 0 -k MAC
r -t 39.013002350 -s 0 -d -1 -p CTS -e 38 -c 2 -a 0 -i 0 -k MAC
+ -t 39.013012350 -s 0 -d 2 -p cbr -e 282 -c 2 -a 0 -i 20 -k MAC 
- -t 39.013012350 -s 0 -d 2 -p cbr -e 282 -c 2 -a 0 -i 20 -k MAC
h -t 39.013012350 -s 0 -d 2 -p cbr -e 282 -c 2 -a 0 -i 20 -k MAC
r -t 39.015268991 -s 2 -d 2 -p cbr -e 230 -c 2 -a 0 -i 20 -k MAC
+ -t 39.015278991 -s 2 -d -1 -p ACK -e 38 -c 2 -a 0 -i 0 -k MAC 
- -t 39.015278991 -s 2 -d -1 -p ACK -e 38 -c 2 -a 0 -i 0 -k MAC
h -t 39.015278991 -s 2 -d -1 -p ACK -e 38 -c 2 -a 0 -i 0 -k MAC
r -t 39.015583633 -s 0 -d -1 -p ACK -e 38 -c 2 -a 0 -i 0 -k MAC
+ -t 39.015872991 -s 2 -d -1 -p RTS -e 44 -c 2 -a 0 -i 0 -k MAC 
- -t 39.015872991 -s 2 -d -1 -p RTS -e 44 -c 2 -a 0 -i 0 -k MAC
h -t 39.015872991 -s 2 -d -1 -p RTS -e 44 -c 2 -a 0 -i 0 -k MAC
r -t 39.016225740 -s 1 -d -1 -p RTS -e 44 -c 2 -a 0 -i 0 -k MAC
+ -t 39.016235740 -s 1 -d -1 -p CTS -e 38 -c 2 -a 0 -i 0 -k MAC 
- -t 39.016235740 -s 1 -d -1 -p CTS -e 38 -c 2 -a 0 -i 0 -k MAC
h -t 39.016235740 -s 1 -d -1 -p CTS -e 38 -c 2 -a 0 -i 0 -k MAC
r -t 39.016540488 -s 2 -d -1 -p CTS -e 38 -c 2 -a 0 -i 0 -k MAC
+ -t 39.016550488 -s 2 -d 1 -p cbr -e 282 -c 2 -a 0 -i 20 -k MAC 
- -t 39.016550488 -s 2 -d 1 -p cbr -e 282 -c 2 -a 0 -i 20 -k MAC
h -t 39.016550488 -s 2 -d 1 -p cbr -e 282 -c 2 -a 0 -i 20 -k MAC
r -t 39.018807236 -s 1 -d 1 -p cbr -e 230 -c 2 -a 0 -i 20 -k MAC
+ -t 39.018817236 -s 1 -d -1 -p ACK -e 38 -c 2 -a 0 -i 0 -k MAC 
- -t 39.018817236 -s 1 -d -1 -p ACK -e 38 -c 2 -a 0 -i 0 -k MAC
h -t 39.018817236 -s 1 -d -1 -p ACK -e 38 -c 2 -a 0 -i 0 -k MAC
r -t 39.019121984 -s 2 -d -1 -p ACK -e 38 -c 2 -a 0 -i 0 -k MAC
+ -t 39.022531066 -s 0 -d -1 -p RTS -e 44 -c 2 -a 0 -i 0 -k MAC 
- -t 39.022531066 -s 0 -d -1 -p RTS -e 44 -c 2 -a 0 -i 0 -k MAC
h -t 39.022531066 -s 0 -d -1 -p RTS -e 44 -c 2 -a 0 -i 0 -k MAC
r -t 39.022883708 -s 2 -d -1 -p RTS -e 44 -c 2 -a 0 -i 0 -k MAC
+ -t 39.022893708 -s 2 -d -1 -p CTS -e 38 -c 2 -a 0 -i 0 -k MAC 
- -t 39.022893708 -s 2 -d -1 -p CTS -e 38 -c 2 -a 0 -i 0 -k MAC
h -t 39.022893708 -s 2 -d -1 -p CTS -e 38 -c 2 -a 0 -i 0 -k MAC
r -t 39.023198350 -s 0 -d -1 -p CTS -e 38 -c 2 -a 0 -i 0 -k MAC
+ -t 39.023208350 -s 0 -d 2 -p cbr -e 282 -c 2 -a 0 -i 21 -k MAC 
- -t 39.023208350 -s 0 -d 2 -p cbr -e 282 -c 2 -a 0 -i 21 -k MAC
h -t 39.023208350 -s 0 -d 2 -p cbr -e 282 -c 2 -a 0 -i 21 -k MAC
r -t 39.025464991 -s 2 -d 2 -p cbr -e 230 -c 2 -a 0 -i 21 -k MAC
+ -t 39.025474991 -s 2 -d -1 -p ACK -e 38 -c 2 -a 0 -i 0 -k MAC 
- -t 39.025474991 -s 2 -d -1 -p ACK -e 38 -c 2 -a 0 -i 0 -k MAC
h -t 39.025474991 -s 2 -d -1 -p ACK -e 38 -c 2 -a 0 -i 0 -k MAC
r -t 39.025779633 -s 0 -d -1 -p ACK -e 38 -c 2 -a 0 -i 0 -k MAC
+ -t 39.026228991 -s 2 -d -1 -p RTS -e 44 -c 2 -a 0 -i 0 -k MAC 
- -t 39.026228991 -s 2 -d -1 -p RTS -e 44 -c 2 -a 0 -i 0 -k MAC
h -t 39.026228991 -s 2 -d -1 -p RTS -e 44 -c 2 -a 0 -i 0 -k MAC
r -t 39.026581739 -s 1 -d -1 -p RTS -e 44 -c 2 -a 0 -i 0 -k MAC
+ -t 39.026591739 -s 1 -d -1 -p CTS -e 38 -c 2 -a 0 -i 0 -k MAC 
- -t 39.026591739 -s 1 -d -1 -p CTS -e 38 -c 2 -a 0 -i 0 -k MAC
h -t 39.026591739 -s 1 -d -1 -p CTS -e 38 -c 2 -a 0 -i 0 -k MAC
r -t 39.026896487 -s 2 -d -1 -p CTS -e 38 -c 2 -a 0 -i 0 -k MAC
+ -t 39.026906487 -s 2 -d 1 -p cbr -e 282 -c 2 -a 0 -i 21 -k MAC 
- -t 39.026906487 -s 2 -d 1 -p cbr -e 282 -c 2 -a 0 -i 21 -k MAC
h -t 39.026906487 -s 2 -d 1 -p cbr -e 282 -c 2 -a 0 -i 21 -k MAC
r -t 39.029163235 -s 1 -d 1 -p cbr -e 230 -c 2 -a 0 -i 21 -k MAC
+ -t 39.029173235 -s 1 -d -1 -p ACK -e 38 -c 2 -a 0 -i 0 -k MAC 
- -t 39.029173235 -s 1 -d -1 -p ACK -e 38 -c 2 -a 0 -i 0 -k MAC
h -t 39.029173235 -s 1 -d -1 -p ACK -e 38 -c 2 -a 0 -i 0 -k MAC
r -t 39.029477983 -s 2 -d -1 -p ACK -e 38 -c 2 -a 0 -i 0 -k MAC
+ -t 39.031991066 -s 0 -d -1 -p RTS -e 44 -c 2 -a 0 -i 0 -k MAC 
- -t 39.031991066 -s 0 -d -1 -p RTS -e 44 -c 2 -a 0 -i 0 -k MAC
h -t 39.031991066 -s 0 -d -1 -p RTS -e 44 -c 2 -a 0 -i 0 -k MAC
r -t 39.032343708 -s 2 -d -1 -p RTS -e 44 -c 2 -a 0 -i 0 -k MAC
+ -t 39.032353708 -s 2 -d -1 -p CTS -e 38 -c 2 -a 0 -i 0 -k MAC 
- -t 39.032353708 -s 2 -d -1 -p CTS -e 38 -c 2 -a 0 -i 0 -k MAC
h -t 39.032353708 -s 2 -d -1 -p CTS -e 38 -c 2 -a 0 -i 0 -k MAC
r -t 39.032658349 -s 0 -d -1 -p CTS -e 38 -c 2 -a 0 -i 0 -k MAC
+ -t 39.032668349 -s 0 -d 2 -p cbr -e 282 -c 2 -a 0 -i 22 -k MAC 
- -t 39.032668349 -s 0 -d 2 -p cbr -e 282 -c 2 -a 0 -i 22 -k MAC
h -t 39.032668349 -s 0 -d 2 -p cbr -e 282 -c 2 -a 0 -i 22 -k MAC
r -t 39.034924991 -s 2 -d 2 -p cbr -e 230 -c 2 -a 0 -i 22 -k MAC
+ -t 39.034934991 -s 2 -d -1 -p ACK -e 38 -c 2 -a 0 -i 0 -k MAC 
- -t 39.034934991 -s 2 -d -1 -p ACK -e 38 -c 2 -a 0 -i 0 -k MAC
h -t 39.034934991 -s 2 -d -1 -p ACK -e 38 -c 2 -a 0 -i 0 -k MAC
r -t 39.035239632 -s 0 -d -1 -p ACK -e 38 -c 2 -a 0 -i 0 -k MAC
+ -t 39.035588991 -s 2 -d -1 -p RTS -e 44 -c 2 -a 0 -i 0 -k MAC 
- -t 39.035588991 -s 2 -d -1 -p RTS -e 44 -c 2 -a 0 -i 0 -k MAC
h -t 39.035588991 -s 2 -d -1 -p RTS -e 44 -c 2 -a 0 -i 0 -k MAC
r -t 39.035941739 -s 1 -d -1 -p RTS -e 44 -c 2 -a 0 -i 0 -k MAC
+ -t 39.035951739 -s 1 -d -1 -p CTS -e 38 -c 2 -a 0 -i 0 -k MAC 
- -t 39.035951739 -s 1 -d -1 -p CTS -e 38 -c 2 -a 0 -i 0 -k MAC
h -t 39.035951739 -s 1 -d -1 -p CTS -e 38 -c 2 -a 0 -i 0 -k MAC
r -t 39.036256487 -s 2 -d -1 -p CTS -e 38 -c 2 -a 0 -i 0 -k MAC
+ -t 39.036266487 -s 2 -d 1 -p cbr -e 282 -c 2 -a 0 -i 22 -k MAC 
- -t 39.036266487 -s 2 -d 1 -p cbr -e 282 -c 2 -a 0 -i 22 -k MAC
h -t 39.036266487 -s 2 -d 1 -p cbr -e 282 -c 2 -a 0 -i 22 -k MAC
r -t 39.038523235 -s 1 -d 1 -p cbr -e 230 -c 2 -a 0 -i 22 -k MAC
+ -t 39.038533235 -s 1 -d -1 -p ACK -e 38 -c 2 -a 0 -i 0 -k MAC 
- -t 39.038533235 -s 1 -d -1 -p ACK -e 38 -c 2 -a 0 -i 0 -k MAC
h -t 39.038533235 -s 1 -d -1 -p ACK -e 38 -c 2 -a 0 -i 0 -k MAC
r -t 39.038837982 -s 2 -d -1 -p ACK -e 38 -c 2 -a 0 -i 0 -k MAC
+ -t 39.042031066 -s 0 -d -1 -p RTS -e 44 -c 2 -a 0 -i 0 -k MAC 
- -t 39.042031066 -s 0 -d -1 -p RTS -e 44 -c 2 -a 0 -i 0 -k MAC
h -t 39.042031066 -s 0 -d -1 -p RTS -e 44 -c 2 -a 0 -i 0 -k MAC
r -t 39.042383708 -s 2 -d -1 -p RTS -e 44 -c 2 -a 0 -i 0 -k MAC
+ -t 39.042393708 -s 2 -d -1 -p CTS -e 38 -c 2 -a 0 -i 0 -k MAC 
- -t 39.042393708 -s 2 -d -1 -p CTS -e 38 -c 2 -a 0 -i 0 -k MAC
h -t 39.042393708 -s 2 -d -1 -p CTS -e 38 -c 2 -a 0 -i 0 -k MAC
r -t 39.042698349 -s 0 -d -1 -p CTS -e 38 -c 2 -a 0 -i 0 -k MAC
+ -t 39.042708349 -s 0 -d 2 -p cbr -e 282 -c 2 -a 0 -i 23 -k MAC 
- -t 39.042708349 -s 0 -d 2 -p cbr -e 282 -c 2 -a 0 -i 23 -k MAC
h -t 39.042708349 -s 0 -d 2 -p cbr -e 282 -c 2 -a 0 -i 23 -k MAC
r -t 39.044964990 -s 2 -d 2 -p cbr -e 230 -c 2 -a 0 -i 23 -k MAC
+ -t 39.044974990 -s 2 -d -1 -p ACK -e 38 -c 2 -a 0 -i 0 -k MAC 
- -t 39.044974990 -s 2 -d -1 -p ACK -e 38 -c 2 -a 0 -i 0 -k MAC
h -t 39.044974990 -s 2 -d -1 -p ACK -e 38 -c 2 -a 0 -i 0 -k MAC
r -t 39.045279632 -s 0 -d -1 -p ACK -e 38 -c 2 -a 0 -i 0 -k MAC
+ -t 39.045608990 -s 2 -d -1 -p RTS -e 44 -c 2 -a 0 -i 0 -k MAC 
- -t 39.045608990 -s 2 -d -1 -p RTS -e 44 -c 2 -a 0 -i 0 -k MAC
h -t 39.045608990 -s 2 -d -1 -p RTS -e 44 -c 2 -a 0 -i 0 -k MAC
r -t 39.045961738 -s 1 -d -1 -p RTS -e 44 -c 2 -a 0 -i 0 -k MAC
+ -t 39.045971738 -s 1 -d -1 -p CTS -e 38 -c 2 -a 0 -i 0 -k MAC 
- -t 39.045971738 -s 1 -d -1 -p CTS -e 38 -c 2 -a 0 -i 0 -k MAC
h -t 39.045971738 -s 1 -d -1 -p CTS -e 38 -c 2 -a 0 -i 0 -k MAC
r -t 39.046276486 -s 2 -d -1 -p CTS -e 38 -c 2 -a 0 -i 0 -k MAC
+ -t 39.046286486 -s 2 -d 1 -p cbr -e 282 -c 2 -a 0 -i 23 -k MAC 
- -t 39.046286486 -s 2 -d 1 -p cbr -e 282 -c 2 -a 0 -i 23 -k MAC
h -t 39.046286486 -s 2 -d 1 -p cbr -e 282 -c 2 -a 0 -i 23 -k MAC
r -t 39.048543234 -s 1 -d 1 -p cbr -e 230 -c 2 -a 0 -i 23 -k MAC
+ -t 39.048553234 -s 1 -d -1 -p ACK -e 38 -c 2 -a 0 -i 0 -k MAC 
- -t 39.048553234 -s 1 -d -1 -p ACK -e 38 -c 2 -a 0 -i 0 -k MAC
h -t 39.048553234 -s 1 -d -1 -p ACK -e 38 -c 2 -a 0 -i 0 -k MAC
r -t 39.048857982 -s 2 -d -1 -p ACK -e 38 -c 2 -a 0 -i 0 -k MAC
+ -t 39.052471066 -s 0 -d -1 -p RTS -e 44 -c 2 -a 0 -i 0 -k MAC 
- -t 39.052471066 -s 0 -d -1 -p RTS -e 44 -c 2 -a 0 -i 0 -k MAC
h -t 39.052471066 -s 0 -d -1 -p RTS -e 44 -c 2 -a 0 -i 0 -k MAC
r -t 39.052823708 -s 2 -d -1 -p RTS -e 44 -c 2 -a 0 -i 0 -k MAC
+ -t 39.052833708 -s 2 -d -1 -p CTS -e 38 -c 2 -a 0 -i 0 -k MAC 
- -t 39.052833708 -s 2 -d -1 -p CTS -e 38 -c 2 -a 0 -i 0 -k MAC
h -t 39.052833708 -s 2 -d -1 -p CTS -e 38 -c 2 -a 0 -i 0 -k MAC
r -t 39.053138349 -s 0 -d -1 -p CTS -e 38 -c 2 -a 0 -i 0 -k MAC
+ -t 39.053148349 -s 0 -d 2 -p cbr -e 282 -c 2 -a 0 -i 24 -k MAC 
- -t 39.053148349 -s 0 -d 2 -p cbr -e 282 -c 2 -a 0 -i 24 -k MAC
h -t 39.053148349 -s 0 -d 2 -p cbr -e 282 -c 2 -a 0 -i 24 -k MAC
r -t 39.055404990 -s 2 -d 2 -p cbr -e 230 -c 2 -a 0 -i 24 -k MAC
+ -t 39.055414990 -s 2 -d -1 -p ACK -e 38 -c 2 -a 0 -i 0 -k MAC 
- -t 39.055414990 -s 2 -d -1 -p ACK -e 38 -c 2 -a 0 -i 0 -k MAC
h -t 39.055414990 -s 2 -d -1 -p ACK -e 38 -c 2 -a 0 -i 0 -k MAC
r -t 39.055719631 -s 0 -d -1 -p ACK -e 38 -c 2 -a 0 -i 0 -k MAC
+ -t 39.055988990 -s 2 -d -1 -p RTS -e 44 -c 2 -a 0 -i 0 -k MAC 
- -t 39.055988990 -s 2 -d -1 -p RTS -e 44 -c 2 -a 0 -i 0 -k MAC
h -t 39.055988990 -s 2 -d -1 -p RTS -e 44 -c 2 -a 0 -i 0 -k MAC
r -t 39.056341738 -s 1 -d -1 -p RTS -e 44 -c 2 -a 0 -i 0 -k MAC
+ -t 39.056351738 -s 1 -d -1 -p CTS -e 38 -c 2 -a 0 -i 0 -k MAC 
- -t 39.056351738 -s 1 -d -1 -p CTS -e 38 -c 2 -a 0 -i 0 -k MAC
h -t 39.056351738 -s 1 -d -1 -p CTS -e 38 -c 2 -a 0 -i 0 -k MAC
r -t 39.056656485 -s 2 -d -1 -p CTS -e 38 -c 2 -a 0 -i 0 -k MAC
+ -t 39.056666485 -s 2 -d 1 -p cbr -e 282 -c 2 -a 0 -i 24 -k MAC 
- -t 39.056666485 -s 2 -d 1 -p cbr -e 282 -c 2 -a 0 -i 24 -k MAC
h -t 39.056666485 -s 2 -d 1 -p cbr -e 282 -c 2 -a 0 -i 24 -k MAC
r -t 39.058923233 -s 1 -d 1 -p cbr -e 230 -c 2 -a 0 -i 24 -k MAC
+ -t 39.058933233 -s 1 -d -1 -p ACK -e 38 -c 2 -a 0 -i 0 -k MAC 
- -t 39.058933233 -s 1 -d -1 -p ACK -e 38 -c 2 -a 0 -i 0 -k MAC
h -t 39.058933233 -s 1 -d -1 -p ACK -e 38 -c 2 -a 0 -i 0 -k MAC
r -t 39.059237981 -s 2 -d -1 -p ACK -e 38 -c 2 -a 0 -i 0 -k MAC
+ -t 39.062011066 -s 0 -d -1 -p RTS -e 44 -c 2 -a 0 -i 0 -k MAC 
- -t 39.062011066 -s 0 -d -1 -p RTS -e 44 -c 2 -a 0 -i 0 -k MAC
h -t 39.062011066 -s 0 -d -1 -p RTS -e 44 -c 2 -a 0 -i 0 -k MAC
r -t 39.062363708 -s 2 -d -1 -p RTS -e 44 -c 2 -a 0 -i 0 -k MAC
+ -t 39.062373708 -s 2 -d -1 -p CTS -e 38 -c 2 -a 0 -i 0 -k MAC 
- -t 39.062373708 -s 2 -d -1 -p CTS -e 38 -c 2 -a 0 -i 0 -k MAC
h -t 39.062373708 -s 2 -d -1 -p CTS -e 38 -c 2 -a 0 -i 0 -k MAC
r -t 39.062678349 -s 0 -d -1 -p CTS -e 38 -c 2 -a 0 -i 0 -k MAC
+ -t 39.062688349 -s 0 -d 2 -p cbr -e 282 -c 2 -a 0 -i 25 -k MAC 
- -t 39.062688349 -s 0 -d 2 -p cbr -e 282 -c 2 -a 0 -i 25 -k MAC
h -t 39.062688349 -s 0 -d 2 -p cbr -e 282 -c 2 -a 0 -i 25 -k MAC
r -t 39.064944990 -s 2 -d 2 -p cbr -e 230 -c 2 -a 0 -i 25 -k MAC
+ -t 39.064954990 -s 2 -d -1 -p ACK -e 38 -c 2 -a 0 -i 0 -k MAC 
- -t 39.064954990 -s 2 -d -1 -p ACK -e 38 -c 2 -a 0 -i 0 -k MAC
h -t 39.064954990 -s 2 -d -1 -p ACK -e 38 -c 2 -a 0 -i 0 -k MAC
r -t 39.065259631 -s 0 -d -1 -p ACK -e 38 -c 2 -a 0 -i 0 -k MAC
+ -t 39.065428990 -s 2 -d -1 -p RTS -e 44 -c 2 -a 0 -i 0 -k MAC 
- -t 39.065428990 -s 2 -d -1 -p RTS -e 44 -c 2 -a 0 -i 0 -k MAC
h -t 39.065428990 -s 2 -d -1 -p RTS -e 44 -c 2 -a 0 -i 0 -k MAC
r -t 39.065781737 -s 1 -d -1 -p RTS -e 44 -c 2 -a 0 -i 0 -k MAC
+ -t 39.065791737 -s 1 -d -1 -p CTS -e 38 -c 2 -a 0 -i 0 -k MAC 
- -t 39.065791737 -s 1 -d -1 -p CTS -e 38 -c 2 -a 0 -i 0 -k MAC
h -t 39.065791737 -s 1 -d -1 -p CTS -e 38 -c 2 -a 0 -i 0 -k MAC
r -t 39.066096485 -s 2 -d -1 -p CTS -e 38 -c 2 -a 0 -i 0 -k MAC
+ -t 39.066106485 -s 2 -d 1 -p cbr -e 282 -c 2 -a 0 -i 25 -k MAC 
- -t 39.066106485 -s 2 -d 1 -p cbr -e 282 -c 2 -a 0 -i 25 -k MAC
h -t 39.066106485 -s 2 -d 1 -p cbr -e 282 -c 2 -a 0 -i 25 -k MAC
r -t 39.068363232 -s 1 -d 1 -p cbr -e 230 -c 2 -a 0 -i 25 -k MAC
+ -t 39.068373232 -s 1 -d -1 -p ACK -e 38 -c 2 -a 0 -i 0 -k MAC 
- -t 39.068373232 -s 1 -d -1 -p ACK -e 38 -c 2 -a 0 -i 0 -k MAC
h -t 39.068373232 -s 1 -d -1 -p ACK -e 38 -c 2 -a 0 -i 0 -k MAC
r -t 39.068677980 -s 2 -d -1 -p ACK -e 38 -c 2 -a 0 -i 0 -k MAC
+ -t 39.072231066 -s 0 -d -1 -p RTS -e 44 -c 2 -a 0 -i 0 -k MAC 
- -t 39.072231066 -s 0 -d -1 -p RTS -e 44 -c 2 -a 0 -i 0 -k MAC
h -t 39.072231066 -s 0 -d -1 -p RTS -e 44 -c 2 -a 0 -i 0 -k MAC
r -t 39.072583708 -s 2 -d -1 -p RTS -e 44 -c 2 -a 0 -i 0 -k MAC
+ -t 39.072593708 -s 2 -d -1 -p CTS -e 38 -c 2 -a 0 -i 0 -k MAC 
- -t 39.072593708 -s 2 -d -1 -p CTS -e 38 -c 2 -a 0 -i 0 -k MAC
h -t 39.072593708 -s 2 -d -1 -p CTS -e 38 -c 2 -a 0 -i 0 -k MAC
r -t 39.072898349 -s 0 -d -1 -p CTS -e 38 -c 2 -a 0 -i 0 -k MAC
+ -t 39.072908349 -s 0 -d 2 -p cbr -e 282 -c 2 -a 0 -i 26 -k MAC 
- -t 39.072908349 -s 0 -d 2 -p cbr -e 282 -c 2 -a 0 -i 26 -k MAC
h -t 39.072908349 -s 0 -d 2 -p cbr -e 282 -c 2 -a 0 -i 26 -k MAC
r -t 39.075164990 -s 2 -d 2 -p cbr -e 230 -c 2 -a 0 -i 26 -k MAC
+ -t 39.075174990 -s 2 -d -1 -p ACK -e 38 -c 2 -a 0 -i 0 -k MAC 
- -t 39.075174990 -s 2 -d -1 -p ACK -e 38 -c 2 -a 0 -i 0 -k MAC
h -t 39.075174990 -s 2 -d -1 -p ACK -e 38 -c 2 -a 0 -i 0 -k MAC
r -t 39.075479631 -s 0 -d -1 -p ACK -e 38 -c 2 -a 0 -i 0 -k MAC
+ -t 39.075708990 -s 2 -d -1 -p RTS -e 44 -c 2 -a 0 -i 0 -k MAC 
- -t 39.075708990 -s 2 -d -1 -p RTS -e 44 -c 2 -a 0 -i 0 -k MAC
h -t 39.075708990 -s 2 -d -1 -p RTS -e 44 -c 2 -a 0 -i 0 -k MAC
r -t 39.076061737 -s 1 -d -1 -p RTS -e 44 -c 2 -a 0 -i 0 -k MAC
+ -t 39.076071737 -s 1 -d -1 -p CTS -e 38 -c 2 -a 0 -i 0 -k MAC 
- -t 39.076071737 -s 1 -d -1 -p CTS -e 38 -c 2 -a 0 -i 0 -k MAC
h -t 39.076071737 -s 1 -d -1 -p CTS -e 38 -c 2 -a 0 -i 0 -k MAC
r -t 39.076376484 -s 2 -d -1 -p CTS -e 38 -c 2 -a 0 -i 0 -k MAC
+ -t 39.076386484 -s 2 -d 1 -p cbr -e 282 -c 2 -a 0 -i 26 -k MAC 
- -t 39.076386484 -s 2 -d 1 -p cbr -e 282 -c 2 -a 0 -i 26 -k MAC
h -t 39.076386484 -s 2 -d 1 -p cbr -e 282 -c 2 -a 0 -i 26 -k MAC
r -t 39.078643231 -s 1 -d 1 -p cbr -e 230 -c 2 -a 0 -i 26 -k MAC
+ -t 39.078653231 -s 1 -d -1 -p ACK -e 38 -c 2 -a 0 -i 0 -k MAC 
- -t 39.078653231 -s 1 -d -1 -p ACK -e 38 -c 2 -a 0 -i 0 -k MAC
h -t 39.078653231 -s 1 -d -1 -p ACK -e 38 -c 2 -a 0 -i 0 -k MAC
r -t 39.078957979 -s 2 -d -1 -p ACK -e 38 -c 2 -a 0 -i 0 -k MAC
+ -t 39.081951066 -s 0 -d -1 -p RTS -e 44 -c 2 -a 0 -i 0 -k MAC 
- -t 39.081951066 -s 0 -d -1 -p RTS -e 44 -c 2 -a 0 -i 0 -k MAC
h -t 39.081951066 -s 0 -d -1 -p RTS -e 44 -c 2 -a 0 -i 0 -k MAC
r -t 39.082303707 -s 2 -d -1 -p RTS -e 44 -c 2 -a 0 -i 0 -k MAC
+ -t 39.082313707 -s 2 -d -1 -p CTS -e 38 -c 2 -a 0 -i 0 -k MAC 
- -t 39.082313707 -s 2 -d -1 -p CTS -e 38 -c 2 -a 0 -i 0 -k MAC
h -t 39.082313707 -s 2 -d -1 -p CTS -e 38 -c 2 -a 0 -i 0 -k MAC
r -t 39.082618348 -s 0 -d -1 -p CTS -e 38 -c 2 -a 0 -i 0 -k MAC
+ -t 39.082628348 -s 0 -d 2 -p cbr -e 282 -c 2 -a 0 -i 27 -k MAC 
- -t 39.082628348 -s 0 -d 2 -p cbr -e 282 -c 2 -a 0 -i 27 -k MAC
h -t 39.082628348 -s 0 -d 2 -p cbr -e 282 -c 2 -a 0 -i 27 -k MAC
r -t 39.084884989 -s 2 -d 2 -p cbr -e 230 -c 2 -a 0 -i 27 -k MAC
+ -t 39.084894989 -s 2 -d -1 -p ACK -e 38 -c 2 -a 0 -i 0 -k MAC 
- -t 39.084894989 -s 2 -d -1 -p ACK -e 38 -c 2 -a 0 -i 0 -k MAC
h -t 39.084894989 -s 2 -d -1 -p ACK -e 38 -c 2 -a 0 -i 0 -k MAC
r -t 39.085199630 -s 0 -d -1 -p ACK -e 38 -c 2 -a 0 -i 0 -k MAC
+ -t 39.085468989 -s 2 -d -1 -p RTS -e 44 -c 2 -a 0 -i 0 -k MAC 
- -t 39.085468989 -s 2 -d -1 -p RTS -e 44 -c 2 -a 0 -i 0 -k MAC
h -t 39.085468989 -s 2 -d -1 -p RTS -e 44 -c 2 -a 0 -i 0 -k MAC
r -t 39.085821736 -s 1 -d -1 -p RTS -e 44 -c 2 -a 0 -i 0 -k MAC
+ -t 39.085831736 -s 1 -d -1 -p CTS -e 38 -c 2 -a 0 -i 0 -k MAC 
- -t 39.085831736 -s 1 -d -1 -p CTS -e 38 -c 2 -a 0 -i 0 -k MAC
h -t 39.085831736 -s 1 -d -1 -p CTS -e 38 -c 2 -a 0 -i 0 -k MAC
r -t 39.086136484 -s 2 -d -1 -p CTS -e 38 -c 2 -a 0 -i 0 -k MAC
+ -t 39.086146484 -s 2 -d 1 -p cbr -e 282 -c 2 -a 0 -i 27 -k MAC 
- -t 39.086146484 -s 2 -d 1 -p cbr -e 282 -c 2 -a 0 -i 27 -k MAC
h -t 39.086146484 -s 2 -d 1 -p cbr -e 282 -c 2 -a 0 -i 27 -k MAC
r -t 39.088403231 -s 1 -d 1 -p cbr -e 230 -c 2 -a 0 -i 27 -k MAC
+ -t 39.088413231 -s 1 -d -1 -p ACK -e 38 -c 2 -a 0 -i 0 -k MAC 
- -t 39.088413231 -s 1 -d -1 -p ACK -e 38 -c 2 -a 0 -i 0 -k MAC
h -t 39.088413231 -s 1 -d -1 -p ACK -e 38 -c 2 -a 0 -i 0 -k MAC
r -t 39.088717978 -s 2 -d -1 -p ACK -e 38 -c 2 -a 0 -i 0 -k MAC
+ -t 39.092171066 -s 0 -d -1 -p RTS -e 44 -c 2 -a 0 -i 0 -k MAC 
- -t 39.092171066 -s 0 -d -1 -p RTS -e 44 -c 2 -a 0 -i 0 -k MAC
h -t 39.092171066 -s 0 -d -1 -p RTS -e 44 -c 2 -a 0 -i 0 -k MAC
r -t 39.092523707 -s 2 -d -1 -p RTS -e 44 -c 2 -a 0 -i 0 -k MAC
+ -t 39.092533707 -s 2 -d -1 -p CTS -e 38 -c 2 -a 0 -i 0 -k MAC 
- -t 39.092533707 -s 2 -d -1 -p CTS -e 38 -c 2 -a 0 -i 0 -k MAC
h -t 39.092533707 -s 2 -d -1 -p CTS -e 38 -c 2 -a 0 -i 0 -k MAC
r -t 39.092838348 -s 0 -d -1 -p CTS -e 38 -c 2 -a 0 -i 0 -k MAC
+ -t 39.092848348 -s 0 -d 2 -p cbr -e 282 -c 2 -a 0 -i 28 -k MAC 
- -t 39.092848348 -s 0 -d 2 -p cbr -e 282 -c 2 -a 0 -i 28 -k MAC
h -t 39.092848348 -s 0 -d 2 -p cbr -e 282 -c 2 -a 0 -i 28 -k MAC
r -t 39.095104989 -s 2 -d 2 -p cbr -e 230 -c 2 -a 0 -i 28 -k MAC
+ -t 39.095114989 -s 2 -d -1 -p ACK -e 38 -c 2 -a 0 -i 0 -k MAC 
- -t 39.095114989 -s 2 -d -1 -p ACK -e 38 -c 2 -a 0 -i 0 -k MAC
h -t 39.095114989 -s 2 -d -1 -p ACK -e 38 -c 2 -a 0 -i 0 -k MAC
r -t 39.095419630 -s 0 -d -1 -p ACK -e 38 -c 2 -a 0 -i 0 -k MAC
+ -t 39.095548989 -s 2 -d -1 -p RTS -e 44 -c 2 -a 0 -i 0 -k MAC 
- -t 39.095548989 -s 2 -d -1 -p RTS -e 44 -c 2 -a 0 -i 0 -k MAC
h -t 39.095548989 -s 2 -d -1 -p RTS -e 44 -c 2 -a 0 -i 0 -k MAC
r -t 39.095901736 -s 1 -d -1 -p RTS -e 44 -c 2 -a 0 -i 0 -k MAC
+ -t 39.095911736 -s 1 -d -1 -p CTS -e 38 -c 2 -a 0 -i 0 -k MAC 
- -t 39.095911736 -s 1 -d -1 -p CTS -e 38 -c 2 -a 0 -i 0 -k MAC
h -t 39.095911736 -s 1 -d -1 -p CTS -e 38 -c 2 -a 0 -i 0 -k MAC
r -t 39.096216483 -s 2 -d -1 -p CTS -e 38 -c 2 -a 0 -i 0 -k MAC
+ -t 39.096226483 -s 2 -d 1 -p cbr -e 282 -c 2 -a 0 -i 28 -k MAC 
- -t 39.096226483 -s 2 -d 1 -p cbr -e 282 -c 2 -a 0 -i 28 -k MAC
h -t 39.096226483 -s 2 -d 1 -p cbr -e 282 -c 2 -a 0 -i 28 -k MAC
r -t 39.098483230 -s 1 -d 1 -p cbr -e 230 -c 2 -a 0 -i 28 -k MAC
+ -t 39.098493230 -s 1 -d -1 -p ACK -e 38 -c 2 -a 0 -i 0 -k MAC 
- -t 39.098493230 -s 1 -d -1 -p ACK -e 38 -c 2 -a 0 -i 0 -k MAC
h -t 39.098493230 -s 1 -d -1 -p ACK -e 38 -c 2 -a 0 -i 0 -k MAC
r -t 39.098797977 -s 2 -d -1 -p ACK -e 38 -c 2 -a 0 -i 0 -k MAC
+ -t 39.102191066 -s 0 -d -1 -p RTS -e 44 -c 2 -a 0 -i 0 -k MAC 
- -t 39.102191066 -s 0 -d -1 -p RTS -e 44 -c 2 -a 0 -i 0 -k MAC
h -t 39.102191066 -s 0 -d -1 -p RTS -e 44 -c 2 -a 0 -i 0 -k MAC
r -t 39.102543707 -s 2 -d -1 -p RTS -e 44 -c 2 -a 0 -i 0 -k MAC
+ -t 39.102553707 -s 2 -d -1 -p CTS -e 38 -c 2 -a 0 -i 0 -k MAC 
- -t 39.102553707 -s 2 -d -1 -p CTS -e 38 -c 2 -a 0 -i 0 -k MAC
h -t 39.102553707 -s 2 -d -1 -p CTS -e 38 -c 2 -a 0 -i 0 -k MAC
r -t 39.102858348 -s 0 -d -1 -p CTS -e 38 -c 2 -a 0 -i 0 -k MAC
+ -t 39.102868348 -s 0 -d 2 -p cbr -e 282 -c 2 -a 0 -i 29 -k MAC 
- -t 39.102868348 -s 0 -d 2 -p cbr -e 282 -c 2 -a 0 -i 29 -k MAC
h -t 39.102868348 -s 0 -d 2 -p cbr -e 282 -c 2 -a 0 -i 29 -k MAC
r -t 39.105124989 -s 2 -d 2 -p cbr -e 230 -c 2 -a 0 -i 29 -k MAC
+ -t 39.105134989 -s 2 -d -1 -p ACK -e 38 -c 2 -a 0 -i 0 -k MAC 
- -t 39.105134989 -s 2 -d -1 -p ACK -e 38 -c 2 -a 0 -i 0 -k MAC
h -t 39.105134989 -s 2 -d -1 -p ACK -e 38 -c 2 -a 0 -i 0 -k MAC
r -t 39.105439630 -s 0 -d -1 -p ACK -e 38 -c 2 -a 0 -i 0 -k MAC
+ -t 39.105788989 -s 2 -d -1 -p RTS -e 44 -c 2 -a 0 -i 0 -k MAC 
- -t 39.105788989 -s 2 -d -1 -p RTS -e 44 -c 2 -a 0 -i 0 -k MAC
h -t 39.105788989 -s 2 -d -1 -p RTS -e 44 -c 2 -a 0 -i 0 -k MAC
r -t 39.106141736 -s 1 -d -1 -p RTS -e 44 -c 2 -a 0 -i 0 -k MAC
+ -t 39.106151736 -s 1 -d -1 -p CTS -e 38 -c 2 -a 0 -i 0 -k MAC 
- -t 39.106151736 -s 1 -d -1 -p CTS -e 38 -c 2 -a 0 -i 0 -k MAC
h -t 39.106151736 -s 1 -d -1 -p CTS -e 38 -c 2 -a 0 -i 0 -k MAC
r -t 39.106456482 -s 2 -d -1 -p CTS -e 38 -c 2 -a 0 -i 0 -k MAC
+ -t 39.106466482 -s 2 -d 1 -p cbr -e 282 -c 2 -a 0 -i 29 -k MAC 
- -t 39.106466482 -s 2 -d 1 -p cbr -e 282 -c 2 -a 0 -i 29 -k MAC
h -t 39.106466482 -s 2 -d 1 -p cbr -e 282 -c 2 -a 0 -i 29 -k MAC
r -t 39.108723229 -s 1 -d 1 -p cbr -e 230 -c 2 -a 0 -i 29 -k MAC
+ -t 39.108733229 -s 1 -d -1 -p ACK -e 38 -c 2 -a 0 -i 0 -k MAC 
- -t 39.108733229 -s 1 -d -1 -p ACK -e 38 -c 2 -a 0 -i 0 -k MAC
h -t 39.108733229 -s 1 -d -1 -p ACK -e 38 -c 2 -a 0 -i 0 -k MAC
r -t 39.109037976 -s 2 -d -1 -p ACK -e 38 -c 2 -a 0 -i 0 -k MAC
+ -t 40.000555000 -s 0 -d -1 -p RTS -e 44 -c 2 -a 0 -i 0 -k MAC 
- -t 40.000555000 -s 0 -d -1 -p RTS -e 44 -c 2 -a 0 -i 0 -k MAC
h -t 40.000555000 -s 0 -d -1 -p RTS -e 44 -c 2 -a 0 -i 0 -k MAC
r -t 40.000907632 -s 2 -d -1 -p RTS -e 44 -c 2 -a 0 -i 0 -k MAC
+ -t 40.000917632 -s 2 -d -1 -p CTS -e 38 -c 2 -a 0 -i 0 -k MAC 
- -t 40.000917632 -s 2 -d -1 -p CTS -e 38 -c 2 -a 0 -i 0 -k MAC
h -t 40.000917632 -s 2 -d -1 -p CTS -e 38 -c 2 -a 0 -i 0 -k MAC
r -t 40.001222265 -s 0 -d -1 -p CTS -e 38 -c 2 -a 0 -i 0 -k MAC
+ -t 40.001232265 -s 0 -d 2 -p cbr -e 282 -c 2 -a 0 -i 30 -k MAC 
- -t 40.001232265 -s 0 -d 2 -p cbr -e 282 -c 2 -a 0 -i 30 -k MAC
h -t 40.001232265 -s 0 -d 2 -p cbr -e 282 -c 2 -a 0 -i 30 -k MAC
r -t 40.003488897 -s 2 -d 2 -p cbr -e 230 -c 2 -a 0 -i 30 -k MAC
+ -t 40.003498897 -s 2 -d -1 -p ACK -e 38 -c 2 -a 0 -i 0 -k MAC 
- -t 40.003498897 -s 2 -d -1 -p ACK -e 38 -c 2 -a 0 -i 0 -k MAC
h -t 40.003498897 -s 2 -d -1 -p ACK -e 38 -c 2 -a 0 -i 0 -k MAC
r -t 40.003803529 -s 0 -d -1 -p ACK -e 38 -c 2 -a 0 -i 0 -k MAC
+ -t 40.004092897 -s 2 -d -1 -p RTS -e 44 -c 2 -a 0 -i 0 -k MAC 
- -t 40.004092897 -s 2 -d -1 -p RTS -e 44 -c 2 -a 0 -i 0 -k MAC
h -t 40.004092897 -s 2 -d -1 -p RTS -e 44 -c 2 -a 0 -i 0 -k MAC
r -t 40.004445629 -s 1 -d -1 -p RTS -e 44 -c 2 -a 0 -i 0 -k MAC
+ -t 40.004455629 -s 1 -d -1 -p CTS -e 38 -c 2 -a 0 -i 0 -k MAC 
- -t 40.004455629 -s 1 -d -1 -p CTS -e 38 -c 2 -a 0 -i 0 -k MAC
h -t 40.004455629 -s 1 -d -1 -p CTS -e 38 -c 2 -a 0 -i 0 -k MAC
r -t 40.004760361 -s 2 -d -1 -p CTS -e 38 -c 2 -a 0 -i 0 -k MAC
+ -t 40.004770361 -s 2 -d 1 -p cbr -e 282 -c 2 -a 0 -i 30 -k MAC 
- -t 40.004770361 -s 2 -d 1 -p cbr -e 282 -c 2 -a 0 -i 30 -k MAC
h -t 40.004770361 -s 2 -d 1 -p cbr -e 282 -c 2 -a 0 -i 30 -k MAC
r -t 40.007027093 -s 1 -d 1 -p cbr -e 230 -c 2 -a 0 -i 30 -k MAC
+ -t 40.007037093 -s 1 -d -1 -p ACK -e 38 -c 2 -a 0 -i 0 -k MAC 
- -t 40.007037093 -s 1 -d -1 -p ACK -e 38 -c 2 -a 0 -i 0 -k MAC
h -t 40.007037093 -s 1 -d -1 -p ACK -e 38 -c 2 -a 0 -i 0 -k MAC
r -t 40.007341825 -s 2 -d -1 -p ACK -e 38 -c 2 -a 0 -i 0 -k MAC
+ -t 41.000115000 -s 0 -d -1 -p RTS -e 44 -c 2 -a 0 -i 0 -k MAC 
- -t 41.000115000 -s 0 -d -1 -p RTS -e 44 -c 2 -a 0 -i 0 -k MAC
h -t 41.000115000 -s 0 -d -1 -p RTS -e 44 -c 2 -a 0 -i 0 -k MAC
r -t 41.000467623 -s 2 -d -1 -p RTS -e 44 -c 2 -a 0 -i 0 -k MAC
+ -t 41.000477623 -s 2 -d -1 -p CTS -e 38 -c 2 -a 0 -i 0 -k MAC 
- -t 41.000477623 -s 2 -d -1 -p CTS -e 38 -c 2 -a 0 -i 0 -k MAC