M 10.00000 0 (5.00, 5.00, 0.00), (250.00, 250.00), 3.00
s 10.000535000 _0_ MAC  --- 0 AODV 100 [0 ffffffff 0 800] ------- [0:255 -1:255 30 0] 
s 12.000635000 _0_ MAC  --- 0 AODV 100 [0 ffffffff 0 800] ------- [0:255 -1:255 30 0] 
M 15.00000 1 (490.00, 285.00, 0.00), (45.00, 285.00), 5.00
s 16.000395000 _0_ MAC  --- 0 AODV 100 [0 ffffffff 0 800] ------- [0:255 -1:255 30 0] 
s 21.500235000 _0_ MAC  --- 0 AODV 100 [0 ffffffff 0 800] ------- [0:255 -1:255 30 0] 
r 21.501035809 _2_ MAC  --- 0 AODV 48 [0 ffffffff 0 800] ------- [0:255 -1:255 30 0] 
s 21.503841826 _2_ MAC  --- 0 AODV 100 [0 ffffffff 2 800] ------- [2:255 -1:255 29 0] 
r 21.504642635 _0_ MAC  --- 0 AODV 48 [0 ffffffff 2 800] ------- [2:255 -1:255 29 0] 
s 39.000315000 _0_ MAC  --- 0 AODV 100 [0 ffffffff 0 800] ------- [0:255 -1:255 30 0] 
r 39.001115642 _2_ MAC  --- 0 AODV 48 [0 ffffffff 0 800] ------- [0:255 -1:255 30 0] 
s 39.001803587 _2_ MAC  --- 0 AODV 100 [0 ffffffff 2 800] ------- [2:255 -1:255 29 0] 
r 39.002604229 _0_ MAC  --- 0 AODV 48 [0 ffffffff 2 800] ------- [2:255 -1:255 29 0] 
r 39.002604336 _1_ MAC  --- 0 AODV 48 [0 ffffffff 2 800] ------- [2:255 -1:255 29 0] 
s 39.002924336 _1_ MAC  --- 0 ARP 80 [0 ffffffff 1 806] ------- [REQUEST 1/1 0/2]
r 39.003565084 _2_ MAC  --- 0 ARP 28 [0 ffffffff 1 806] ------- [REQUEST 1/1 0/2]
s 39.003715084 _2_ MAC  --- 0 RTS 44 [4fe 1 2 0] 
r 39.004067833 _1_ MAC  --- 0 RTS 44 [4fe 1 2 0] 
s 39.004077833 _1_ MAC  --- 0 CTS 38 [3c4 2 0 0] 
r 39.004382581 _2_ MAC  --- 0 CTS 38 [3c4 2 0 0] 
s 39.004392581 _2_ MAC  --- 0 ARP 80 [13a 1 2 806] ------- [REPLY 2/2 1/1]
r 39.005033330 _1_ MAC  --- 0 ARP 28 [13a 1 2 806] ------- [REPLY 2/2 1/1]
s 39.005043330 _1_ MAC  --- 0 ACK 38 [0 2 0 0] 
r 39.005348078 _2_ MAC  --- 0 ACK 38 [0 2 0 0] 
s 39.005457330 _1_ MAC  --- 0 RTS 44 [57e 2 1 0] 
r 39.005810078 _2_ MAC  --- 0 RTS 44 [57e 2 1 0] 
s 39.005820078 _2_ MAC  --- 0 CTS 38 [444 1 0 0] 
r 39.006124826 _1_ MAC  --- 0 CTS 38 [444 1 0 0] 
s 39.006134826 _1_ MAC  --- 0 AODV 96 [13a 2 1 800] ------- [1:255 0:255 30 2] 
r 39.006903575 _2_ MAC  --- 0 AODV 44 [13a 2 1 800] ------- [1:255 0:255 30 2] 
s 39.006913575 _2_ MAC  --- 0 ACK 38 [0 1 0 0] 
r 39.007218323 _1_ MAC  --- 0 ACK 38 [0 1 0 0] 
s 39.007707575 _2_ MAC  --- 0 ARP 80 [0 ffffffff 2 806] ------- [REQUEST 2/2 0/0]
r 39.008348217 _0_ MAC  --- 0 ARP 28 [0 ffffffff 2 806] ------- [REQUEST 2/2 0/0]
r 39.008348323 _1_ MAC  --- 0 ARP 28 [0 ffffffff 2 806] ------- [REQUEST 2/2 0/0]
s 39.008603217 _0_ MAC  --- 0 RTS 44 [4fe 2 0 0] 
r 39.008955858 _2_ MAC  --- 0 RTS 44 [4fe 2 0 0] 
s 39.008965858 _2_ MAC  --- 0 CTS 38 [3c4 0 0 0] 
r 39.009270500 _0_ MAC  --- 0 CTS 38 [3c4 0 0 0] 
s 39.009280500 _0_ MAC  --- 0 ARP 80 [13a 2 0 806] ------- [REPLY 0/0 2/2]
r 39.009921142 _2_ MAC  --- 0 ARP 28 [13a 2 0 806] ------- [REPLY 0/0 2/2]
s 39.009931142 _2_ MAC  --- 0 ACK 38 [0 0 0 0] 
r 39.010235783 _0_ MAC  --- 0 ACK 38 [0 0 0 0] 
s 39.010405142 _2_ MAC  --- 0 RTS 44 [57e 0 2 0] 
r 39.010757783 _0_ MAC  --- 0 RTS 44 [57e 0 2 0] 
s 39.010767783 _0_ MAC  --- 0 CTS 38 [444 2 0 0] 
r 39.011072425 _2_ MAC  --- 0 CTS 38 [444 2 0 0] 
s 39.011082425 _2_ MAC  --- 0 AODV 96 [13a 0 2 800] ------- [1:255 0:255 29 0] 
r 39.011851066 _0_ MAC  --- 0 AODV 44 [13a 0 2 800] ------- [1:255 0:255 29 0] 
s 39.011861066 _0_ MAC  --- 0 ACK 38 [0 2 0 0] 
r 39.012165708 _2_ MAC  --- 0 ACK 38 [0 2 0 0] 
s 39.012335066 _0_ MAC  --- 0 RTS 44 [b4e 2 0 0] 
r 39.012687708 _2_ MAC  --- 0 RTS 44 [b4e 2 0 0] 
s 39.012697708 _2_ MAC  --- 0 CTS 38 [a14 0 0 0] 
r 39.013002350 _0_ MAC  --- 0 CTS 38 [a14 0 0 0] 
s 39.013012350 _0_ MAC  --- 20 cbr 282 [13a 2 0 800] ------- [0:0 1:0 30 2] [20] 0 0
r 39.015268991 _2_ MAC  --- 20 cbr 230 [13a 2 0 800] ------- [0:0 1:0 30 2] [20] 1 0
s 39.015278991 _2_ MAC  --- 0 ACK 38 [0 0 0 0] 
r 39.015583633 _0_ MAC  --- 0 ACK 38 [0 0 0 0] 
s 39.015872991 _2_ MAC  --- 0 RTS 44 [b4e 1 2 0] 
r 39.016225740 _1_ MAC  --- 0 RTS 44 [b4e 1 2 0] 
s 39.016235740 _1_ MAC  --- 0 CTS 38 [a14 2 0 0] 
r 39.016540488 _2_ MAC  --- 0 CTS 38 [a14 2 0 0] 
s 39.016550488 _2_ MAC  --- 20 cbr 282 [13a 1 2 800] ------- [0:0 1:0 29 1] [20] 1 0
r 39.018807236 _1_ MAC  --- 20 cbr 230 [13a 1 2 800] ------- [0:0 1:0 29 1] [20] 2 0
s 39.018817236 _1_ MAC  --- 0 ACK 38 [0 2 0 0] 
r 39.019121984 _2_ MAC  --- 0 ACK 38 [0 2 0 0] 
s 39.022531066 _0_ MAC  --- 0 RTS 44 [b4e 2 0 0] 
r 39.022883708 _2_ MAC  --- 0 RTS 44 [b4e 2 0 0] 
s 39.022893708 _2_ MAC  --- 0 CTS 38 [a14 0 0 0] 
r 39.023198350 _0_ MAC  --- 0 CTS 38 [a14 0 0 0] 
s 39.023208350 _0_ MAC  --- 21 cbr 282 [13a 2 0 800] ------- [0:0 1:0 30 2] [21] 0 0
r 39.025464991 _2_ MAC  --- 21 cbr 230 [13a 2 0 800] ------- [0:0 1:0 30 2] [21] 1 0
s 39.025474991 _2_ MAC  --- 0 ACK 38 [0 0 0 0] 
r 39.025779633 _0_ MAC  --- 0 ACK 38 [0 0 0 0] 
s 39.026228991 _2_ MAC  --- 0 RTS 44 [b4e 1 2 0] 
r 39.026581739 _1_ MAC  --- 0 RTS 44 [b4e 1 2 0] 
s 39.026591739 _1_ MAC  --- 0 CTS 38 [a14 2 0 0] 
r 39.026896487 _2_ MAC  --- 0 CTS 38 [a14 2 0 0] 
s 39.026906487 _2_ MAC  --- 21 cbr 282 [13a 1 2 800] ------- [0:0 1:0 29 1] [21] 1 0
r 39.029163235 _1_ MAC  --- 21 cbr 230 [13a 1 2 800] ------- [0:0 1:0 29 1] [21] 2 0
s 39.029173235 _1_ MAC  --- 0 ACK 38 [0 2 0 0] 
r 39.029477983 _2_ MAC  --- 0 ACK 38 [0 2 0 0] 
s 39.031991066 _0_ MAC  --- 0 RTS 44 [b4e 2 0 0] 
r 39.032343708 _2_ MAC  --- 0 RTS 44 [b4e 2 0 0] 
s 39.032353708 _2_ MAC  --- 0 CTS 38 [a14 0 0 0] 
r 39.032658349 _0_ MAC  --- 0 CTS 38 [a14 0 0 0] 
s 39.032668349 _0_ MAC  --- 22 cbr 282 [13a 2 0 800] ------- [0:0 1:0 30 2] [22] 0 0
r 39.034924991 _2_ MAC  --- 22 cbr 230 [13a 2 0 800] ------- [0:0 1:0 30 2] [22] 1 0
s 39.034934991 _2_ MAC  --- 0 ACK 38 [0 0 0 0] 
r 39.035239632 _0_ MAC  --- 0 ACK 38 [0 0 0 0] 
s 39.035588991 _2_ MAC  --- 0 RTS 44 [b4e 1 2 0] 
r 39.035941739 _1_ MAC  --- 0 RTS 44 [b4e 1 2 0] 
s 39.035951739 _1_ MAC  --- 0 CTS 38 [a14 2 0 0] 
r 39.036256487 _2_ MAC  --- 0 CTS 38 [a14 2 0 0] 
s 39.036266487 _2_ MAC  --- 22 cbr 282 [13a 1 2 800] ------- [0:0 1:0 29 1] [22] 1 0
r 39.038523235 _1_ MAC  --- 22 cbr 230 [13a 1 2 800] ------- [0:0 1:0 29 1] [22] 2 0
s 39.038533235 _1_ MAC  --- 0 ACK 38 [0 2 0 0] 
r 39.038837982 _2_ MAC  --- 0 ACK 38 [0 2 0 0] 
s 39.042031066 _0_ MAC  --- 0 RTS 44 [b4e 2 0 0] 
r 39.042383708 _2_ MAC  --- 0 RTS 44 [b4e 2 0 0] 
s 39.042393708 _2_ MAC  --- 0 CTS 38 [a14 0 0 0] 
r 39.042698349 _0_ MAC  --- 0 CTS 38 [a14 0 0 0] 
s 39.042708349 _0_ MAC  --- 23 cbr 282 [13a 2 0 800] ------- [0:0 1:0 30 2] [23] 0 0
r 39.044964990 _2_ MAC  --- 23 cbr 230 [13a 2 0 800] ------- [0:0 1:0 30 2] [23] 1 0
s 39.044974990 _2_ MAC  --- 0 ACK 38 [0 0 0 0] 
r 39.045279632 _0_ MAC  --- 0 ACK 38 [0 0 0 0] 
s 39.045608990 _2_ MAC  --- 0 RTS 44 [b4e 1 2 0] 
r 39.045961738 _1_ MAC  --- 0 RTS 44 [b4e 1 2 0] 
s 39.045971738 _1_ MAC  --- 0 CTS 38 [a14 2 0 0] 
r 39.046276486 _2_ MAC  --- 0 CTS 38 [a14 2 0 0] 
s 39.046286486 _2_ MAC  --- 23 cbr 282 [13a 1 2 800] ------- [0:0 1:0 29 1] [23] 1 0
r 39.048543234 _1_ MAC  --- 23 cbr 230 [13a 1 2 800] ------- [0:0 1:0 29 1] [23] 2 0
s 39.048553234 _1_ MAC  --- 0 ACK 38 [0 2 0 0] 
r 39.048857982 _2_ MAC  --- 0 ACK 38 [0 2 0 0] 
s 39.052471066 _0_ MAC  --- 0 RTS 44 [b4e 2 0 0] 
r 39.052823708 _2_ MAC  --- 0 RTS 44 [b4e 2 0 0] 
s 39.052833708 _2_ MAC  --- 0 CTS 38 [a14 0 0 0] 
r 39.053138349 _0_ MAC  --- 0 CTS 38 [a14 0 0 0] 
s 39.053148349 _0_ MAC  --- 24 cbr 282 [13a 2 0 800] ------- [0:0 1:0 30 2] [24] 0 0
r 39.055404990 _2_ MAC  --- 24 cbr 230 [13a 2 0 800] ------- [0:0 1:0 30 2] [24] 1 0
s 39.055414990 _2_ MAC  --- 0 ACK 38 [0 0 0 0] 
r 39.055719631 _0_ MAC  --- 0 ACK 38 [0 0 0 0] 
s 39.055988990 _2_ MAC  --- 0 RTS 44 [b4e 1 2 0] 
r 39.056341738 _1_ MAC  --- 0 RTS 44 [b4e 1 2 0] 
s 39.056351738 _1_ MAC  --- 0 CTS 38 [a14 2 0 0] 
r 39.056656485 _2_ MAC  --- 0 CTS 38 [a14 2 0 0] 
s 39.056666485 _2_ MAC  --- 24 cbr 282 [13a 1 2 800] ------- [0:0 1:0 29 1] [24] 1 0
r 39.058923233 _1_ MAC  --- 24 cbr 230 [13a 1 2 800] ------- [0:0 1:0 29 1] [24] 2 0
s 39.058933233 _1_ MAC  --- 0 ACK 38 [0 2 0 0] 
r 39.059237981 _2_ MAC  --- 0 ACK 38 [0 2 0 0] 
s 39.062011066 _0_ MAC  --- 0 RTS 44 [b4e 2 0 0] 
r 39.062363708 _2_ MAC  --- 0 RTS 44 [b4e 2 0 0] 
s 39.062373708 _2_ MAC  --- 0 CTS 38 [a14 0 0 0] 
r 39.062678349 _0_ MAC  --- 0 CTS 38 [a14 0 0 0] 
s 39.062688349 _0_ MAC  --- 25 cbr 282 [13a 2 0 800] ------- [0:0 1:0 30 2] [25] 0 0
r 39.064944990 _2_ MAC  --- 25 cbr 230 [13a 2 0 800] ------- [0:0 1:0 30 2] [25] 1 0
s 39.064954990 _2_ MAC  --- 0 ACK 38 [0 0 0 0] 
r 39.065259631 _0_ MAC  --- 0 ACK 38 [0 0 0 0] 
s 39.065428990 _2_ MAC  --- 0 RTS 44 [b4e 1 2 0] 
r 39.065781737 _1_ MAC  --- 0 RTS 44 [b4e 1 2 0] 
s 39.065791737 _1_ MAC  --- 0 CTS 38 [a14 2 0 0] 
r 39.066096485 _2_ MAC  --- 0 CTS 38 [a14 2 0 0] 
s 39.066106485 _2_ MAC  --- 25 cbr 282 [13a 1 2 800] ------- [0:0 1:0 29 1] [25] 1 0
r 39.068363232 _1_ MAC  --- 25 cbr 230 [13a 1 2 800] ------- [0:0 1:0 29 1] [25] 2 0
s 39.068373232 _1_ MAC  --- 0 ACK 38 [0 2 0 0] 
r 39.068677980 _2_ MAC  --- 0 ACK 38 [0 2 0 0] 
s 39.072231066 _0_ MAC  --- 0 RTS 44 [b4e 2 0 0] 
r 39.072583708 _2_ MAC  --- 0 RTS 44 [b4e 2 0 0] 
s 39.072593708 _2_ MAC  --- 0 CTS 38 [a14 0 0 0] 
r 39.072898349 _0_ MAC  --- 0 CTS 38 [a14 0 0 0] 
s 39.072908349 _0_ MAC  --- 26 cbr 282 [13a 2 0 800] ------- [0:0 1:0 30 2] [26] 0 0
r 39.075164990 _2_ MAC  --- 26 cbr 230 [13a 2 0 800] ------- [0:0 1:0 30 2] [26] 1 0
s 39.075174990 _2_ MAC  --- 0 ACK 38 [0 0 0 0] 
r 39.075479631 _0_ MAC  --- 0 ACK 38 [0 0 0 0] 
s 39.075708990 _2_ MAC  --- 0 RTS 44 [b4e 1 2 0] 
r 39.076061737 _1_ MAC  --- 0 RTS 44 [b4e 1 2 0] 
s 39.076071737 _1_ MAC  --- 0 CTS 38 [a14 2 0 0] 
r 39.076376484 _2_ MAC  --- 0 CTS 38 [a14 2 0 0] 
s 39.076386484 _2_ MAC  --- 26 cbr 282 [13a 1 2 800] ------- [0:0 1:0 29 1] [26] 1 0
r 39.078643231 _1_ MAC  --- 26 cbr 230 [13a 1 2 800] ------- [0:0 1:0 29 1] [26] 2 0
s 39.078653231 _1_ MAC  --- 0 ACK 38 [0 2 0 0] 
r 39.078957979 _2_ MAC  --- 0 ACK 38 [0 2 0 0] 
s 39.081951066 _0_ MAC  --- 0 RTS 44 [b4e 2 0 0] 
r 39.082303707 _2_ MAC  --- 0 RTS 44 [b4e 2 0 0] 
s 39.082313707 _2_ MAC  --- 0 CTS 38 [a14 0 0 0] 
r 39.082618348 _0_ MAC  --- 0 CTS 38 [a14 0 0 0] 
s 39.082628348 _0_ MAC  --- 27 cbr 282 [13a 2 0 800] ------- [0:0 1:0 30 2] [27] 0 0
r 39.084884989 _2_ MAC  --- 27 cbr 230 [13a 2 0 800] ------- [0:0 1:0 30 2] [27] 1 0
s 39.084894989 _2_ MAC  --- 0 ACK 38 [0 0 0 0] 
r 39.085199630 _0_ MAC  --- 0 ACK 38 [0 0 0 0] 
s 39.085468989 _2_ MAC  --- 0 RTS 44 [b4e 1 2 0] 
r 39.085821736 _1_ MAC  --- 0 RTS 44 [b4e 1 2 0] 
s 39.085831736 _1_ MAC  --- 0 CTS 38 [a14 2 0 0] 
r 39.086136484 _2_ MAC  --- 0 CTS 38 [a14 2 0 0] 
s 39.086146484 _2_ MAC  --- 27 cbr 282 [13a 1 2 800] ------- [0:0 1:0 29 1] [27] 1 0
r 39.088403231 _1_ MAC  --- 27 cbr 230 [13a 1 2 800] ------- [0:0 1:0 29 1] [27] 2 0
s 39.088413231 _1_ MAC  --- 0 ACK 38 [0 2 0 0] 
r 39.088717978 _2_ MAC  --- 0 ACK 38 [0 2 0 0] 
s 39.092171066 _0_ MAC  --- 0 RTS 44 [b4e 2 0 0] 
r 39.092523707 _2_ MAC  --- 0 RTS 44 [b4e 2 0 0] 
s 39.092533707 _2_ MAC  --- 0 CTS 38 [a14 0 0 0] 
r 39.092838348 _0_ MAC  --- 0 CTS 38 [a14 0 0 0] 
s 39.092848348 _0_ MAC  --- 28 cbr 282 [13a 2 0 800] ------- [0:0 1:0 30 2] [28] 0 0
r 39.095104989 _2_ MAC  --- 28 cbr 230 [13a 2 0 800] ------- [0:0 1:0 30 2] [28] 1 0
s 39.095114989 _2_ MAC  --- 0 ACK 38 [0 0 0 0] 
r 39.095419630 _0_ MAC  --- 0 ACK 38 [0 0 0 0] 
s 39.095548989 _2_ MAC  --- 0 RTS 44 [b4e 1 2 0] 
r 39.095901736 _1_ MAC  --- 0 RTS 44 [b4e 1 2 0] 
s 39.095911736 _1_ MAC  --- 0 CTS 38 [a14 2 0 0] 
r 39.096216483 _2_ MAC  --- 0 CTS 38 [a14 2 0 0] 
s 39.096226483 _2_ MAC  --- 28 cbr 282 [13a 1 2 800] ------- [0:0 1:0 29 1] [28] 1 0
r 39.098483230 _1_ MAC  --- 28 cbr 230 [13a 1 2 800] ------- [0:0 1:0 29 1] [28] 2 0
s 39.098493230 _1_ MAC  --- 0 ACK 38 [0 2 0 0] 
r 39.098797977 _2_ MAC  --- 0 ACK 38 [0 2 0 0] 
s 39.102191066 _0_ MAC  --- 0 RTS 44 [b4e 2 0 0] 
r 39.102543707 _2_ MAC  --- 0 RTS 44 [b4e 2 0 0] 
s 39.102553707 _2_ MAC  --- 0 CTS 38 [a14 0 0 0] 
r 39.102858348 _0_ MAC  --- 0 CTS 38 [a14 0 0 0] 
s 39.102868348 _0_ MAC  --- 29 cbr 282 [13a 2 0 800] ------- [0:0 1:0 30 2] [29] 0 0
r 39.105124989 _2_ MAC  --- 29 cbr 230 [13a 2 0 800] ------- [0:0 1:0 30 2] [29] 1 0
s 39.105134989 _2_ MAC  --- 0 ACK 38 [0 0 0 0] 
r 39.105439630 _0_ MAC  --- 0 ACK 38 [0 0 0 0] 
s 39.105788989 _2_ MAC  --- 0 RTS 44 [b4e 1 2 0] 
r 39.106141736 _1_ MAC  --- 0 RTS 44 [b4e 1 2 0] 
s 39.106151736 _1_ MAC  --- 0 CTS 38 [a14 2 0 0] 
r 39.106456482 _2_ MAC  --- 0 CTS 38 [a14 2 0 0] 
s 39.106466482 _2_ MAC  --- 29 cbr 282 [13a 1 2 800] ------- [0:0 1:0 29 1] [29] 1 0
r 39.108723229 _1_ MAC  --- 29 cbr 230 [13a 1 2 800] ------- [0:0 1:0 29 1] [29] 2 0
s 39.108733229 _1_ MAC  --- 0 ACK 38 [0 2 0 0] 
r 39.109037976 _2_ MAC  --- 0 ACK 38 [0 2 0 0] 
s 40.000555000 _0_ MAC  --- 0 RTS 44 [b4e 2 0 0] 
r 40.000907632 _2_ MAC  --- 0 RTS 44 [b4e 2 0 0] 
s 40.000917632 _2_ MAC  --- 0 CTS 38 [a14 0 0 0] 
r 40.001222265 _0_ MAC  --- 0 CTS 38 [a14 0 0 0] 
s 40.001232265 _0_ MAC  --- 30 cbr 282 [13a 2 0 800] ------- [0:0 1:0 30 2] [30] 0 0
r 40.003488897 _2_ MAC  --- 30 cbr 230 [13a 2 0 800] ------- [0:0 1:0 30 2] [30] 1 0
s 40.003498897 _2_ MAC  --- 0 ACK 38 [0 0 0 0] 
r 40.003803529 _0_ MAC  --- 0 ACK 38 [0 0 0 0] 
s 40.004092897 _2_ MAC  --- 0 RTS 44 [b4e 1 2 0] 
r 40.004445629 _1_ MAC  --- 0 RTS 44 [b4e 1 2 0] 
s 40.004455629 _1_ MAC  --- 0 CTS 38 [a14 2 0 0] 
r 40.004760361 _2_ MAC  --- 0 CTS 38 [a14 2 0 0] 
s 40.004770361 _2_ MAC  --- 30 cbr 282 [13a 1 2 800] ------- [0:0 1:0 29 1] [30] 1 0
r 40.007027093 _1_ MAC  --- 30 cbr 230 [13a 1 2 800] ------- [0:0 1:0 29 1] [30] 2 0
s 40.007037093 _1_ MAC  --- 0 ACK 38 [0 2 0 0] 
r 40.007341825 _2_ MAC  --- 0 ACK 38 [0 2 0 0] 
s 41.000115000 _0_ MAC  --- 0 RTS 44 [b4e 2 0 0] 
r 41.000467623 _2_ MAC  --- 0 RTS 44 [b4e 2 0 0] 
s 41.000477623 _2_ MAC  --- 0 CTS 38 [a14 0 0 0] 
r 41.000782246 _0_ MAC  --- 0 CTS 38 [a14 0 0 0] 
s 41.000792246 _0_ MAC  --- 31 cbr 282 [13a 2 0 800] ------- [0:0 1:0 30 2] [31] 0 0
r 41.003048869 _2_ MAC  --- 31 cbr 230 [13a 2 0 800] ------- [0:0 1:0 30 2] [31] 1 0
s 41.003058869 _2_ MAC  --- 0 ACK 38 [0 0 0 0] 
r 41.003363492 _0_ MAC  --- 0 ACK 38 [0 0 0 0] 
s 41.003872869 _2_ MAC  --- 0 RTS 44 [b4e 1 2 0] 
r 41.004225585 _1_ MAC  --- 0 RTS 44 [b4e 1 2 0] 
s 41.004235585 _1_ MAC  --- 0 CTS 38 [a14 2 0 0] 
r 41.004540300 _2_ MAC  --- 0 CTS 38 [a14 2 0 0] 
s 41.004550300 _2_ MAC  --- 31 cbr 282 [13a 1 2 800] ------- [0:0 1:0 29 1] [31] 1 0
r 41.006807016 _1_ MAC  --- 31 cbr 230 [13a 1 2 800] ------- [0:0 1:0 29 1] [31] 2 0
s 41.006817016 _1_ MAC  --- 0 ACK 38 [0 2 0 0] 
r 41.007121732 _2_ MAC  --- 0 ACK 38 [0 2 0 0] 
s 42.000175000 _0_ MAC  --- 0 RTS 44 [b4e 2 0 0] 
r 42.000527614 _2_ MAC  --- 0 RTS 44 [b4e 2 0 0] 
s 42.000537614 _2_ MAC  --- 0 CTS 38 [a14 0 0 0] 
r 42.000842227 _0_ MAC  --- 0 CTS 38 [a14 0 0 0] 
s 42.000852227 _0_ MAC  --- 32 cbr 282 [13a 2 0 800] ------- [0:0 1:0 30 2] [32] 0 0
r 42.003108841 _2_ MAC  --- 32 cbr 230 [13a 2 0 800] ------- [0:0 1:0 30 2] [32] 1 0
s 42.003118841 _2_ MAC  --- 0 ACK 38 [0 0 0 0] 
r 42.003423454 _0_ MAC  --- 0 ACK 38 [0 0 0 0] 
s 42.003552841 _2_ MAC  --- 0 RTS 44 [b4e 1 2 0] 
r 42.003905540 _1_ MAC  --- 0 RTS 44 [b4e 1 2 0] 
s 42.003915540 _1_ MAC  --- 0 CTS 38 [a14 2 0 0] 
r 42.004220240 _2_ MAC  --- 0 CTS 38 [a14 2 0 0] 
s 42.004230240 _2_ MAC  --- 32 cbr 282 [13a 1 2 800] ------- [0:0 1:0 29 1] [32] 1 0
r 42.006486939 _1_ MAC  --- 32 cbr 230 [13a 1 2 800] ------- [0:0 1:0 29 1] [32] 2 0
s 42.006496939 _1_ MAC  --- 0 ACK 38 [0 2 0 0] 
r 42.006801639 _2_ MAC  --- 0 ACK 38 [0 2 0 0] 
s 43.000135000 _0_ MAC  --- 0 RTS 44 [b4e 2 0 0] 
r 43.000487604 _2_ MAC  --- 0 RTS 44 [b4e 2 0 0] 
s 43.000497604 _2_ MAC  --- 0 CTS 38 [a14 0 0 0] 
r 43.000802208 _0_ MAC  --- 0 CTS 38 [a14 0 0 0] 
s 43.000812208 _0_ MAC  --- 33 cbr 282 [13a 2 0 800] ------- [0:0 1:0 30 2] [33] 0 0
r 43.003068812 _2_ MAC  --- 33 cbr 230 [13a 2 0 800] ------- [0:0 1:0 30 2] [33] 1 0
s 43.003078812 _2_ MAC  --- 0 ACK 38 [0 0 0 0] 
r 43.003383417 _0_ MAC  --- 0 ACK 38 [0 0 0 0] 
s 43.003772812 _2_ MAC  --- 0 RTS 44 [b4e 1 2 0] 
r 43.004125496 _1_ MAC  --- 0 RTS 44 [b4e 1 2 0] 
s 43.004135496 _1_ MAC  --- 0 CTS 38 [a14 2 0 0] 
r 43.004440179 _2_ MAC  --- 0 CTS 38 [a14 2 0 0] 
s 43.004450179 _2_ MAC  --- 33 cbr 282 [13a 1 2 800] ------- [0:0 1:0 29 1] [33] 1 0
r 43.006706862 _1_ MAC  --- 33 cbr 230 [13a 1 2 800] ------- [0:0 1:0 29 1] [33] 2 0
s 43.006716862 _1_ MAC  --- 0 ACK 38 [0 2 0 0] 
r 43.007021545 _2_ MAC  --- 0 ACK 38 [0 2 0 0] 
s 44.000135000 _0_ MAC  --- 0 RTS 44 [b4e 2 0 0] 
r 44.000487595 _2_ MAC  --- 0 RTS 44 [b4e 2 0 0] 
s 44.000497595 _2_ MAC  --- 0 CTS 38 [a14 0 0 0] 
r 44.000802190 _0_ MAC  --- 0 CTS 38 [a14 0 0 0] 
s 44.000812190 _0_ MAC  --- 34 cbr 282 [13a 2 0 800] ------- [0:0 1:0 30 2] [34] 0 0
r 44.003068784 _2_ MAC  --- 34 cbr 230 [13a 2 0 800] ------- [0:0 1:0 30 2] [34] 1 0
s 44.003078784 _2_ MAC  --- 0 ACK 38 [0 0 0 0] 
r 44.003383379 _0_ MAC  --- 0 ACK 38 [0 0 0 0] 
s 44.004012784 _2_ MAC  --- 0 RTS 44 [b4e 1 2 0] 
r 44.004365451 _1_ MAC  --- 0 RTS 44 [b4e 1 2 0] 
s 44.004375451 _1_ MAC  --- 0 CTS 38 [a14 2 0 0] 
r 44.004680118 _2_ MAC  --- 0 CTS 38 [a14 2 0 0] 
s 44.004690118 _2_ MAC  --- 34 cbr 282 [13a 1 2 800] ------- [0:0 1:0 29 1] [34] 1 0
r 44.006946785 _1_ MAC  --- 34 cbr 230 [13a 1 2 800] ------- [0:0 1:0 29 1] [34] 2 0
s 44.006956785 _1_ MAC  --- 0 ACK 38 [0 2 0 0] 
r 44.007261452 _2_ MAC  --- 0 ACK 38 [0 2 0 0] 
s 45.000515000 _0_ MAC  --- 0 RTS 44 [b4e 2 0 0] 
r 45.000867585 _2_ MAC  --- 0 RTS 44 [b4e 2 0 0] 
s 45.000877585 _2_ MAC  --- 0 CTS 38 [a14 0 0 0] 
r 45.001182171 _0_ MAC  --- 0 CTS 38 [a14 0 0 0] 
s 45.001192171 _0_ MAC  --- 35 cbr 282 [13a 2 0 800] ------- [0:0 1:0 30 2] [35] 0 0
r 45.003448756 _2_ MAC  --- 35 cbr 230 [13a 2 0 800] ------- [0:0 1:0 30 2] [35] 1 0
s 45.003458756 _2_ MAC  --- 0 ACK 38 [0 0 0 0] 
r 45.003763342 _0_ MAC  --- 0 ACK 38 [0 0 0 0] 
s 45.004352756 _2_ MAC  --- 0 RTS 44 [b4e 1 2 0] 
r 45.004705407 _1_ MAC  --- 0 RTS 44 [b4e 1 2 0] 
s 45.004715407 _1_ MAC  --- 0 CTS 38 [a14 2 0 0] 
r 45.005020058 _2_ MAC  --- 0 CTS 38 [a14 2 0 0] 
s 45.005030058 _2_ MAC  --- 35 cbr 282 [13a 1 2 800] ------- [0:0 1:0 29 1] [35] 1 0
r 45.007286709 _1_ MAC  --- 35 cbr 230 [13a 1 2 800] ------- [0:0 1:0 29 1] [35] 2 0
s 45.007296709 _1_ MAC  --- 0 ACK 38 [0 2 0 0] 
r 45.007601359 _2_ MAC  --- 0 ACK 38 [0 2 0 0] 
s 46.000375000 _0_ MAC  --- 0 RTS 44 [b4e 2 0 0] 
r 46.000727576 _2_ MAC  --- 0 RTS 44 [b4e 2 0 0] 
s 46.000737576 _2_ MAC  --- 0 CTS 38 [a14 0 0 0] 
r 46.001042152 _0_ MAC  --- 0 CTS 38 [a14 0 0 0] 
s 46.001052152 _0_ MAC  --- 36 cbr 282 [13a 2 0 800] ------- [0:0 1:0 30 2] [36] 0 0
r 46.003308728 _2_ MAC  --- 36 cbr 230 [13a 2 0 800] ------- [0:0 1:0 30 2] [36] 1 0
s 46.003318728 _2_ MAC  --- 0 ACK 38 [0 0 0 0] 
r 46.003623305 _0_ MAC  --- 0 ACK 38 [0 0 0 0] 
s 46.004012728 _2_ MAC  --- 0 RTS 44 [b4e 1 2 0] 
r 46.004365363 _1_ MAC  --- 0 RTS 44 [b4e 1 2 0] 
s 46.004375363 _1_ MAC  --- 0 CTS 38 [a14 2 0 0] 
r 46.004679998 _2_ MAC  --- 0 CTS 38 [a14 2 0 0] 
s 46.004689998 _2_ MAC  --- 36 cbr 282 [13a 1 2 800] ------- [0:0 1:0 29 1] [36] 1 0
r 46.006946632 _1_ MAC  --- 36 cbr 230 [13a 1 2 800] ------- [0:0 1:0 29 1] [36] 2 0
s 46.006956632 _1_ MAC  --- 0 ACK 38 [0 2 0 0] 
r 46.007261267 _2_ MAC  --- 0 ACK 38 [0 2 0 0] 
s 47.000295000 _0_ MAC  --- 0 RTS 44 [b4e 2 0 0] 
r 47.000647567 _2_ MAC  --- 0 RTS 44 [b4e 2 0 0] 
s 47.000657567 _2_ MAC  --- 0 CTS 38 [a14 0 0 0] 
r 47.000962134 _0_ MAC  --- 0 CTS 38 [a14 0 0 0] 
s 47.000972134 _0_ MAC  --- 37 cbr 282 [13a 2 0 800] ------- [0:0 1:0 30 2] [37] 0 0
r 47.003228701 _2_ MAC  --- 37 cbr 230 [13a 2 0 800] ------- [0:0 1:0 30 2] [37] 1 0
s 47.003238701 _2_ MAC  --- 0 ACK 38 [0 0 0 0] 
r 47.003543267 _0_ MAC  --- 0 ACK 38 [0 0 0 0] 
s 47.003772701 _2_ MAC  --- 0 RTS 44 [b4e 1 2 0] 
r 47.004125319 _1_ MAC  --- 0 RTS 44 [b4e 1 2 0] 
s 47.004135319 _1_ MAC  --- 0 CTS 38 [a14 2 0 0] 
r 47.004439937 _2_ MAC  --- 0 CTS 38 [a14 2 0 0] 
s 47.004449937 _2_ MAC  --- 37 cbr 282 [13a 1 2 800] ------- [0:0 1:0 29 1] [37] 1 0
r 47.006706556 _1_ MAC  --- 37 cbr 230 [13a 1 2 800] ------- [0:0 1:0 29 1] [37] 2 0
s 47.006716556 _1_ MAC  --- 0 ACK 38 [0 2 0 0] 
r 47.007021174 _2_ MAC  --- 0 ACK 38 [0 2 0 0] 
s 48.000475000 _0_ MAC  --- 0 RTS 44 [b4e 2 0 0] 
r 48.000827558 _2_ MAC  --- 0 RTS 44 [b4e 2 0 0] 
s 48.000837558 _2_ MAC  --- 0 CTS 38 [a14 0 0 0] 
r 48.001142115 _0_ MAC  --- 0 CTS 38 [a14 0 0 0] 
s 48.001152115 _0_ MAC  --- 38 cbr 282 [13a 2 0 800] ------- [0:0 1:0 30 2] [38] 0 0
r 48.003408673 _2_ MAC  --- 38 cbr 230 [13a 2 0 800] ------- [0:0 1:0 30 2] [38] 1 0
s 48.003418673 _2_ MAC  --- 0 ACK 38 [0 0 0 0] 
r 48.003723230 _0_ MAC  --- 0 ACK 38 [0 0 0 0] 
s 48.003892673 _2_ MAC  --- 0 RTS 44 [b4e 1 2 0] 
r 48.004245275 _1_ MAC  --- 0 RTS 44 [b4e 1 2 0] 
s 48.004255275 _1_ MAC  --- 0 CTS 38 [a14 2 0 0] 
r 48.004559877 _2_ MAC  --- 0 CTS 38 [a14 2 0 0] 
s 48.004569877 _2_ MAC  --- 38 cbr 282 [13a 1 2 800] ------- [0:0 1:0 29 1] [38] 1 0
r 48.006826479 _1_ MAC  --- 38 cbr 230 [13a 1 2 800] ------- [0:0 1:0 29 1] [38] 2 0
s 48.006836479 _1_ MAC  --- 0 ACK 38 [0 2 0 0] 
r 48.007141082 _2_ MAC  --- 0 ACK 38 [0 2 0 0] 
s 49.000075000 _0_ MAC  --- 0 RTS 44 [b4e 2 0 0] 
r 49.000427548 _2_ MAC  --- 0 RTS 44 [b4e 2 0 0] 
s 49.000437548 _2_ MAC  --- 0 CTS 38 [a14 0 0 0] 
r 49.000742097 _0_ MAC  --- 0 CTS 38 [a14 0 0 0] 
s 49.000752097 _0_ MAC  --- 39 cbr 282 [13a 2 0 800] ------- [0:0 1:0 30 2] [39] 0 0
r 49.003008645 _2_ MAC  --- 39 cbr 230 [13a 2 0 800] ------- [0:0 1:0 30 2] [39] 1 0
s 49.003018645 _2_ MAC  --- 0 ACK 38 [0 0 0 0] 
r 49.003323193 _0_ MAC  --- 0 ACK 38 [0 0 0 0] 
s 49.003512645 _2_ MAC  --- 0 RTS 44 [b4e 1 2 0] 
r 49.003865231 _1_ MAC  --- 0 RTS 44 [b4e 1 2 0] 
s 49.003875231 _1_ MAC  --- 0 CTS 38 [a14 2 0 0] 
r 49.004179817 _2_ MAC  --- 0 CTS 38 [a14 2 0 0] 
s 49.004189817 _2_ MAC  --- 39 cbr 282 [13a 1 2 800] ------- [0:0 1:0 29 1] [39] 1 0
r 49.006446403 _1_ MAC  --- 39 cbr 230 [13a 1 2 800] ------- [0:0 1:0 29 1] [39] 2 0
s 49.006456403 _1_ MAC  --- 0 ACK 38 [0 2 0 0] 
r 49.006760990 _2_ MAC  --- 0 ACK 38 [0 2 0 0] 
s 50.000495000 _0_ MAC  --- 0 RTS 44 [b4e 2 0 0] 
r 50.000847539 _2_ MAC  --- 0 RTS 44 [b4e 2 0 0] 
s 50.000857539 _2_ MAC  --- 0 CTS 38 [a14 0 0 0] 
r 50.001162078 _0_ MAC  --- 0 CTS 38 [a14 0 0 0] 
s 50.001172078 _0_ MAC  --- 40 cbr 282 [13a 2 0 800] ------- [0:0 1:0 30 2] [40] 0 0
r 50.003428617 _2_ MAC  --- 40 cbr 230 [13a 2 0 800] ------- [0:0 1:0 30 2] [40] 1 0
s 50.003438617 _2_ MAC  --- 0 ACK 38 [0 0 0 0] 
r 50.003743157 _0_ MAC  --- 0 ACK 38 [0 0 0 0] 
s 50.004292617 _2_ MAC  --- 0 RTS 44 [b4e 1 2 0] 
r 50.004645187 _1_ MAC  --- 0 RTS 44 [b4e 1 2 0] 
s 50.004655187 _1_ MAC  --- 0 CTS 38 [a14 2 0 0] 
r 50.004959757 _2_ MAC  --- 0 CTS 38 [a14 2 0 0] 
s 50.004969757 _2_ MAC  --- 40 cbr 282 [13a 1 2 800] ------- [0:0 1:0 29 1] [40] 1 0
r 50.007226327 _1_ MAC  --- 40 cbr 230 [13a 1 2 800] ------- [0:0 1:0 29 1] [40] 2 0
s 50.007236327 _1_ MAC  --- 0 ACK 38 [0 2 0 0] 
r 50.007540897 _2_ MAC  --- 0 ACK 38 [0 2 0 0] 
s 51.000095000 _0_ MAC  --- 0 RTS 44 [b4e 2 0 0] 
r 51.000447530 _2_ MAC  --- 0 RTS 44 [b4e 2 0 0] 
s 51.000457530 _2_ MAC  --- 0 CTS 38 [a14 0 0 0] 
r 51.000762060 _0_ MAC  --- 0 CTS 38 [a14 0 0 0] 
s 51.000772060 _0_ MAC  --- 41 cbr 282 [13a 2 0 800] ------- [0:0 1:0 30 2] [41] 0 0
r 51.003028590 _2_ MAC  --- 41 cbr 230 [13a 2 0 800] ------- [0:0 1:0 30 2] [41] 1 0
s 51.003038590 _2_ MAC  --- 0 ACK 38 [0 0 0 0] 
r 51.003343120 _0_ MAC  --- 0 ACK 38 [0 0 0 0] 
s 51.003652590 _2_ MAC  --- 0 RTS 44 [b4e 1 2 0] 
r 51.004005144 _1_ MAC  --- 0 RTS 44 [b4e 1 2 0] 
s 51.004015144 _1_ MAC  --- 0 CTS 38 [a14 2 0 0] 
r 51.004319698 _2_ MAC  --- 0 CTS 38 [a14 2 0 0] 
s 51.004329698 _2_ MAC  --- 41 cbr 282 [13a 1 2 800] ------- [0:0 1:0 29 1] [41] 1 0
r 51.006586252 _1_ MAC  --- 41 cbr 230 [13a 1 2 800] ------- [0:0 1:0 29 1] [41] 2 0
s 51.006596252 _1_ MAC  --- 0 ACK 38 [0 2 0 0] 
r 51.006900806 _2_ MAC  --- 0 ACK 38 [0 2 0 0] 
s 52.000135000 _0_ MAC  --- 0 RTS 44 [b4e 2 0 0] 
r 52.000487521 _2_ MAC  --- 0 RTS 44 [b4e 2 0 0] 
s 52.000497521 _2_ MAC  --- 0 CTS 38 [a14 0 0 0] 
r 52.000802042 _0_ MAC  --- 0 CTS 38 [a14 0 0 0] 
s 52.000812042 _0_ MAC  --- 42 cbr 282 [13a 2 0 800] ------- [0:0 1:0 30 2] [42] 0 0
r 52.003068562 _2_ MAC  --- 42 cbr 230 [13a 2 0 800] ------- [0:0 1:0 30 2] [42] 1 0
s 52.003078562 _2_ MAC  --- 0 ACK 38 [0 0 0 0] 
r 52.003383083 _0_ MAC  --- 0 ACK 38 [0 0 0 0] 
s 52.003952562 _2_ MAC  --- 0 RTS 44 [b4e 1 2 0] 
r 52.004305100 _1_ MAC  --- 0 RTS 44 [b4e 1 2 0] 
s 52.004315100 _1_ MAC  --- 0 CTS 38 [a14 2 0 0] 
r 52.004619638 _2_ MAC  --- 0 CTS 38 [a14 2 0 0] 
s 52.004629638 _2_ MAC  --- 42 cbr 282 [13a 1 2 800] ------- [0:0 1:0 29 1] [42] 1 0
r 52.006886176 _1_ MAC  --- 42 cbr 230 [13a 1 2 800] ------- [0:0 1:0 29 1] [42] 2 0
s 52.006896176 _1_ MAC  --- 0 ACK 38 [0 2 0 0] 
r 52.007200714 _2_ MAC  --- 0 ACK 38 [0 2 0 0] 
s 53.000095000 _0_ MAC  --- 0 RTS 44 [b4e 2 0 0] 
r 53.000447512 _2_ MAC  --- 0 RTS 44 [b4e 2 0 0] 
s 53.000457512 _2_ MAC  --- 0 CTS 38 [a14 0 0 0] 
r 53.000762023 _0_ MAC  --- 0 CTS 38 [a14 0 0 0] 
s 53.000772023 _0_ MAC  --- 43 cbr 282 [13a 2 0 800] ------- [0:0 1:0 30 2] [43] 0 0
r 53.003028535 _2_ MAC  --- 43 cbr 230 [13a 2 0 800] ------- [0:0 1:0 30 2] [43] 1 0
s 53.003038535 _2_ MAC  --- 0 ACK 38 [0 0 0 0] 
r 53.003343047 _0_ MAC  --- 0 ACK 38 [0 0 0 0] 
s 53.003412535 _2_ MAC  --- 0 RTS 44 [b4e 1 2 0] 
r 53.003765057 _1_ MAC  --- 0 RTS 44 [b4e 1 2 0] 
s 53.003775057 _1_ MAC  --- 0 CTS 38 [a14 2 0 0] 
r 53.004079579 _2_ MAC  --- 0 CTS 38 [a14 2 0 0] 
s 53.004089579 _2_ MAC  --- 43 cbr 282 [13a 1 2 800] ------- [0:0 1:0 29 1] [43] 1 0
r 53.006346101 _1_ MAC  --- 43 cbr 230 [13a 1 2 800] ------- [0:0 1:0 29 1] [43] 2 0
s 53.006356101 _1_ MAC  --- 0 ACK 38 [0 2 0 0] 
r 53.006660623 _2_ MAC  --- 0 ACK 38 [0 2 0 0] 
s 54.000095000 _0_ MAC  --- 0 RTS 44 [b4e 2 0 0] 
r 54.000447503 _2_ MAC  --- 0 RTS 44 [b4e 2 0 0] 
s 54.000457503 _2_ MAC  --- 0 CTS 38 [a14 0 0 0] 
r 54.000762005 _0_ MAC  --- 0 CTS 38 [a14 0 0 0] 
s 54.000772005 _0_ MAC  --- 44 cbr 282 [13a 2 0 800] ------- [0:0 1:0 30 2] [44] 0 0
r 54.003028508 _2_ MAC  --- 44 cbr 230 [13a 2 0 800] ------- [0:0 1:0 30 2] [44] 1 0
s 54.003038508 _2_ MAC  --- 0 ACK 38 [0 0 0 0] 
r 54.003343010 _0_ MAC  --- 0 ACK 38 [0 0 0 0] 
s 54.003412508 _2_ MAC  --- 0 RTS 44 [b4e 1 2 0] 
r 54.003765014 _1_ MAC  --- 0 RTS 44 [b4e 1 2 0] 
s 54.003775014 _1_ MAC  --- 0 CTS 38 [a14 2 0 0] 
r 54.004079520 _2_ MAC  --- 0 CTS 38 [a14 2 0 0] 
s 54.004089520 _2_ MAC  --- 44 cbr 282 [13a 1 2 800] ------- [0:0 1:0 29 1] [44] 1 0
r 54.006346026 _1_ MAC  --- 44 cbr 230 [13a 1 2 800] ------- [0:0 1:0 29 1] [44] 2 0
s 54.006356026 _1_ MAC  --- 0 ACK 38 [0 2 0 0] 
r 54.006660532 _2_ MAC  --- 0 ACK 38 [0 2 0 0] 
s 55.000455000 _0_ MAC  --- 0 RTS 44 [b4e 2 0 0] 
r 55.000807494 _2_ MAC  --- 0 RTS 44 [b4e 2 0 0] 
s 55.000817494 _2_ MAC  --- 0 CTS 38 [a14 0 0 0] 
r 55.001121987 _0_ MAC  --- 0 CTS 38 [a14 0 0 0] 
s 55.001131987 _0_ MAC  --- 45 cbr 282 [13a 2 0 800] ------- [0:0 1:0 30 2] [45] 0 0
r 55.003388481 _2_ MAC  --- 45 cbr 230 [13a 2 0 800] ------- [0:0 1:0 30 2] [45] 1 0
s 55.003398481 _2_ MAC  --- 0 ACK 38 [0 0 0 0] 
r 55.003702974 _0_ MAC  --- 0 ACK 38 [0 0 0 0] 
s 55.004232481 _2_ MAC  --- 0 RTS 44 [b4e 1 2 0] 
r 55.004584971 _1_ MAC  --- 0 RTS 44 [b4e 1 2 0] 
s 55.004594971 _1_ MAC  --- 0 CTS 38 [a14 2 0 0] 
r 55.004899461 _2_ MAC  --- 0 CTS 38 [a14 2 0 0] 
s 55.004909461 _2_ MAC  --- 45 cbr 282 [13a 1 2 800] ------- [0:0 1:0 29 1] [45] 1 0
r 55.007165951 _1_ MAC  --- 45 cbr 230 [13a 1 2 800] ------- [0:0 1:0 29 1] [45] 2 0
s 55.007175951 _1_ MAC  --- 0 ACK 38 [0 2 0 0] 
r 55.007480441 _2_ MAC  --- 0 ACK 38 [0 2 0 0] 
s 56.000615000 _0_ MAC  --- 0 RTS 44 [b4e 2 0 0] 
r 56.000967485 _2_ MAC  --- 0 RTS 44 [b4e 2 0 0] 
s 56.000977485 _2_ MAC  --- 0 CTS 38 [a14 0 0 0] 
r 56.001281969 _0_ MAC  --- 0 CTS 38 [a14 0 0 0] 
s 56.001291969 _0_ MAC  --- 46 cbr 282 [13a 2 0 800] ------- [0:0 1:0 30 2] [46] 0 0
r 56.003548454 _2_ MAC  --- 46 cbr 230 [13a 2 0 800] ------- [0:0 1:0 30 2] [46] 1 0
s 56.003558454 _2_ MAC  --- 0 ACK 38 [0 0 0 0] 
r 56.003862938 _0_ MAC  --- 0 ACK 38 [0 0 0 0] 
s 56.004092454 _2_ MAC  --- 0 RTS 44 [b4e 1 2 0] 
r 56.004444928 _1_ MAC  --- 0 RTS 44 [b4e 1 2 0] 
s 56.004454928 _1_ MAC  --- 0 CTS 38 [a14 2 0 0] 
r 56.004759402 _2_ MAC  --- 0 CTS 38 [a14 2 0 0] 
s 56.004769402 _2_ MAC  --- 46 cbr 282 [13a 1 2 800] ------- [0:0 1:0 29 1] [46] 1 0
r 56.007025876 _1_ MAC  --- 46 cbr 230 [13a 1 2 800] ------- [0:0 1:0 29 1] [46] 2 0
s 56.007035876 _1_ MAC  --- 0 ACK 38 [0 2 0 0] 
r 56.007340351 _2_ MAC  --- 0 ACK 38 [0 2 0 0] 
s 57.000075000 _0_ MAC  --- 0 RTS 44 [b4e 2 0 0] 
r 57.000427476 _2_ MAC  --- 0 RTS 44 [b4e 2 0 0] 
s 57.000437476 _2_ MAC  --- 0 CTS 38 [a14 0 0 0] 
r 57.000741951 _0_ MAC  --- 0 CTS 38 [a14 0 0 0] 
s 57.000751951 _0_ MAC  --- 47 cbr 282 [13a 2 0 800] ------- [0:0 1:0 30 2] [47] 0 0
r 57.003008427 _2_ MAC  --- 47 cbr 230 [13a 2 0 800] ------- [0:0 1:0 30 2] [47] 1 0
s 57.003018427 _2_ MAC  --- 0 ACK 38 [0 0 0 0] 
r 57.003322902 _0_ MAC  --- 0 ACK 38 [0 0 0 0] 
s 57.003472427 _2_ MAC  --- 0 RTS 44 [b4e 1 2 0] 
r 57.003824885 _1_ MAC  --- 0 RTS 44 [b4e 1 2 0] 
s 57.003834885 _1_ MAC  --- 0 CTS 38 [a14 2 0 0] 
r 57.004139344 _2_ MAC  --- 0 CTS 38 [a14 2 0 0] 
s 57.004149344 _2_ MAC  --- 47 cbr 282 [13a 1 2 800] ------- [0:0 1:0 29 1] [47] 1 0
r 57.006405802 _1_ MAC  --- 47 cbr 230 [13a 1 2 800] ------- [0:0 1:0 29 1] [47] 2 0
s 57.006415802 _1_ MAC  --- 0 ACK 38 [0 2 0 0] 
r 57.006720261 _2_ MAC  --- 0 ACK 38 [0 2 0 0] 
s 58.000635000 _0_ MAC  --- 0 RTS 44 [b4e 2 0 0] 
r 58.000987467 _2_ MAC  --- 0 RTS 44 [b4e 2 0 0] 
s 58.000997467 _2_ MAC  --- 0 CTS 38 [a14 0 0 0] 
r 58.001301933 _0_ MAC  --- 0 CTS 38 [a14 0 0 0] 
s 58.001311933 _0_ MAC  --- 48 cbr 282 [13a 2 0 800] ------- [0:0 1:0 30 2] [48] 0 0
r 58.003568400 _2_ MAC  --- 48 cbr 230 [13a 2 0 800] ------- [0:0 1:0 30 2] [48] 1 0
s 58.003578400 _2_ MAC  --- 0 ACK 38 [0 0 0 0] 
r 58.003882867 _0_ MAC  --- 0 ACK 38 [0 0 0 0] 
s 58.004512400 _2_ MAC  --- 0 RTS 44 [b4e 1 2 0] 